Program Version,EnergyPlus, Version 25.1.0-68a4a7c774, YMD=2025.08.28 15:55
1,5,Environment Title[],Latitude[deg],Longitude[deg],Time Zone[],Elevation[m]
2,8,Day of Simulation[],Month[],Day of Month[],DST Indicator[1=yes 0=no],Hour[],StartMinute[],EndMinute[],DayType
3,5,Cumulative Day of Simulation[],Month[],Day of Month[],DST Indicator[1=yes 0=no],DayType  ! When Daily Report Variables Requested
4,2,Cumulative Days of Simulation[],Month[]  ! When Monthly Report Variables Requested
5,1,Cumulative Days of Simulation[] ! When Run Period Report Variables Requested
6,1,Calendar Year of Simulation[] ! When Annual Report Variables Requested
7,1,Environment,Site Outdoor Air Drybulb Temperature [C] !Hourly
8,1,Environment,Site Total Sky Cover [] !Hourly
9,1,Environment,Site Opaque Sky Cover [] !Hourly
10,7,Environment,Site Daylight Saving Time Status [] !Daily [Value,Min,Hour,Minute,Max,Hour,Minute]
11,7,Environment,Site Day Type Index [] !Daily [Value,Min,Hour,Minute,Max,Hour,Minute]
49,1,ZONE ONE,Zone Total Internal Latent Gain Energy [J] !Hourly
50,9,TEST 352A,Other Equipment Total Heating Energy [J] !Monthly [Value,Min,Day,Hour,Minute,Max,Day,Hour,Minute]
51,9,TEST 352 MINUS,Other Equipment Total Heating Energy [J] !Monthly [Value,Min,Day,Hour,Minute,Max,Day,Hour,Minute]
52,9,ZONE ONE,Zone Other Equipment Total Heating Energy [J] !Monthly [Value,Min,Day,Hour,Minute,Max,Day,Hour,Minute]
53,7,ZN001:WALL001,Surface Inside Face Temperature [C] !Daily [Value,Min,Hour,Minute,Max,Hour,Minute]
54,7,ZN001:WALL001,Surface Outside Face Temperature [C] !Daily [Value,Min,Hour,Minute,Max,Hour,Minute]
55,7,ZN001:WALL001,Surface Inside Face Convection Heat Transfer Coefficient [W/m2-K] !Daily [Value,Min,Hour,Minute,Max,Hour,Minute]
56,7,ZN001:WALL001,Surface Outside Face Convection Heat Transfer Coefficient [W/m2-K] !Daily [Value,Min,Hour,Minute,Max,Hour,Minute]
57,7,ZN001:WALL002,Surface Inside Face Temperature [C] !Daily [Value,Min,Hour,Minute,Max,Hour,Minute]
58,7,ZN001:WALL002,Surface Outside Face Temperature [C] !Daily [Value,Min,Hour,Minute,Max,Hour,Minute]
59,7,ZN001:WALL002,Surface Inside Face Convection Heat Transfer Coefficient [W/m2-K] !Daily [Value,Min,Hour,Minute,Max,Hour,Minute]
60,7,ZN001:WALL002,Surface Outside Face Convection Heat Transfer Coefficient [W/m2-K] !Daily [Value,Min,Hour,Minute,Max,Hour,Minute]
61,7,ZN001:WALL003,Surface Inside Face Temperature [C] !Daily [Value,Min,Hour,Minute,Max,Hour,Minute]
62,7,ZN001:WALL003,Surface Outside Face Temperature [C] !Daily [Value,Min,Hour,Minute,Max,Hour,Minute]
63,7,ZN001:WALL003,Surface Inside Face Convection Heat Transfer Coefficient [W/m2-K] !Daily [Value,Min,Hour,Minute,Max,Hour,Minute]
64,7,ZN001:WALL003,Surface Outside Face Convection Heat Transfer Coefficient [W/m2-K] !Daily [Value,Min,Hour,Minute,Max,Hour,Minute]
65,7,ZN001:WALL004,Surface Inside Face Temperature [C] !Daily [Value,Min,Hour,Minute,Max,Hour,Minute]
66,7,ZN001:WALL004,Surface Outside Face Temperature [C] !Daily [Value,Min,Hour,Minute,Max,Hour,Minute]
67,7,ZN001:WALL004,Surface Inside Face Convection Heat Transfer Coefficient [W/m2-K] !Daily [Value,Min,Hour,Minute,Max,Hour,Minute]
68,7,ZN001:WALL004,Surface Outside Face Convection Heat Transfer Coefficient [W/m2-K] !Daily [Value,Min,Hour,Minute,Max,Hour,Minute]
69,7,ZN001:FLR001,Surface Inside Face Temperature [C] !Daily [Value,Min,Hour,Minute,Max,Hour,Minute]
70,7,ZN001:FLR001,Surface Outside Face Temperature [C] !Daily [Value,Min,Hour,Minute,Max,Hour,Minute]
71,7,ZN001:FLR001,Surface Inside Face Convection Heat Transfer Coefficient [W/m2-K] !Daily [Value,Min,Hour,Minute,Max,Hour,Minute]
72,7,ZN001:ROOF001,Surface Inside Face Temperature [C] !Daily [Value,Min,Hour,Minute,Max,Hour,Minute]
73,7,ZN001:ROOF001,Surface Outside Face Temperature [C] !Daily [Value,Min,Hour,Minute,Max,Hour,Minute]
74,7,ZN001:ROOF001,Surface Inside Face Convection Heat Transfer Coefficient [W/m2-K] !Daily [Value,Min,Hour,Minute,Max,Hour,Minute]
75,7,ZN001:ROOF001,Surface Outside Face Convection Heat Transfer Coefficient [W/m2-K] !Daily [Value,Min,Hour,Minute,Max,Hour,Minute]
76,1,ZONE ONE,Zone Mean Air Temperature [C] !Hourly
77,1,ZONE ONE,Zone Wetbulb Globe Temperature [C] !Hourly
78,1,ZONE ONE,Zone Operative Temperature [C] !Hourly
79,1,ZONE ONE,Zone Air Heat Balance Surface Convection Rate [W] !Hourly
80,1,ZONE ONE,Zone Air Heat Balance Air Energy Storage Rate [W] !Hourly
81,1,ZONE ONE,Zone Mean Radiant Temperature [C] !Hourly
17,11,Electricity:Facility [J] !Annual [Value,Min,Month,Day,Hour,Minute,Max,Month,Day,Hour,Minute]
End of Data Dictionary
1,DENVER CENTENNIAL  GOLDEN   N ANN HTG 99% CONDNS DB,  41.98, -87.92,  -6.00, 201.00
2,1,12,21, 0, 1, 0.00,60.00,WinterDesignDay
7,-15.5
8,6.75
9,6.75
49,0.0
76,-18.35688020790066
77,-18.3564950843035
78,-18.355608897668624
79,-0.03897341963490675
80,-0.03903951409134708
81,-18.354337587436586
2,1,12,21, 0, 2, 0.00,60.00,WinterDesignDay
7,-15.5
8,9.625
9,9.625
49,0.0
76,-18.356976725145273
77,-18.356593455959164
78,-18.355706348680467
79,-0.038448858241249884
80,-0.03851406437369141
81,-18.354435972215665
2,1,12,21, 0, 3, 0.00,60.00,WinterDesignDay
7,-15.5
8,10.0
9,10.0
49,0.0
76,-18.357071943270387
77,-18.356686840962595
78,-18.355802487389383
79,-0.037931346664596965
80,-0.03799567637219692
81,-18.354533031508385
2,1,12,21, 0, 4, 0.00,60.00,WinterDesignDay
7,-15.5
8,10.0
9,10.0
49,0.0
76,-18.357165879736844
77,-18.356779809123708
78,-18.35589733145158
79,-0.03742079050136127
80,-0.037484255520520905
81,-18.35462878316632
2,1,12,21, 0, 5, 0.00,60.00,WinterDesignDay
7,-15.5
8,10.0
9,10.0
49,0.0
76,-18.357258551771608
77,-18.356876264023306
78,-18.3559908982862
79,-0.036917096589008214
80,-0.036979708509664644
81,-18.354723244800798
2,1,12,21, 0, 6, 0.00,60.00,WinterDesignDay
7,-15.5
8,10.0
9,10.0
49,0.0
76,-18.357349976370894
77,-18.35696827611719
78,-18.356083205078527
79,-0.03642017300471423
80,-0.03648194325238465
81,-18.354816433786155
2,1,12,21, 0, 7, 0.00,60.00,WinterDesignDay
7,-15.5
8,10.0
9,10.0
49,0.0
76,-18.357440170303168
77,-18.357054874983177
78,-18.35617426878303
79,-0.03592992905730252
80,-0.03599086890976602
81,-18.354908367262883
2,1,12,21, 0, 8, 0.00,60.00,WinterDesignDay
7,-15.5
8,8.75
9,8.75
49,0.0
76,-18.35752915011226
77,-18.35714564679435
78,-18.356264106126527
79,-0.03544627524216626
80,-0.03550639582447891
81,-18.35499906214079
2,1,12,21, 0, 9, 0.00,60.00,WinterDesignDay
7,-15.5
8,3.0
9,3.0
49,0.0
76,-18.35761693212028
77,-18.357233771084186
78,-18.356352733611192
79,-0.03496912325743118
80,-0.0350284355576107
81,-18.355088535102105
2,1,12,21, 0,10, 0.00,60.00,WinterDesignDay
7,-15.5
8,1.25
9,0.0
49,0.0
76,-18.35770353243061
77,-18.357321313747246
78,-18.356440167517565
79,-0.034498385965977985
80,-0.03455690081340519
81,-18.355176802604518
2,1,12,21, 0,11, 0.00,60.00,WinterDesignDay
7,-15.5
8,0.75
9,0.0
49,0.0
76,-18.357788966930766
77,-18.357406194779244
78,-18.35652642390749
79,-0.03403397739377967
80,-0.03409170548318265
81,-18.355263880884213
2,1,12,21, 0,12, 0.00,60.00,WinterDesignDay
7,-15.5
8,3.75
9,1.25
49,0.0
76,-18.357873251295317
77,-18.357490418097008
78,-18.356611518627076
79,-0.03357581271114318
80,-0.03363276459005815
81,-18.355349785958836
2,1,12,21, 0,13, 0.00,60.00,WinterDesignDay
7,-15.5
8,8.5
9,5.75
49,0.0
76,-18.357956400988684
77,-18.357574021688244
78,-18.35669546730956
79,-0.03312380821920602
80,-0.03317999429022994
81,-18.355434533630433
2,1,12,21, 0,14, 0.00,60.00,WinterDesignDay
7,-15.5
8,10.0
9,8.625
49,0.0
76,-18.358038431267953
77,-18.357657562180812
78,-18.356778285378148
79,-0.032677881324111535
80,-0.03273331185835121
81,-18.35551813948834
2,1,12,21, 0,15, 0.00,60.00,WinterDesignDay
7,-15.5
8,9.375
9,9.0
49,0.0
76,-18.358119357185632
77,-18.357738069454328
78,-18.35685998804885
79,-0.03223795053897893
80,-0.032292635667231645
81,-18.35560061891207
2,1,12,21, 0,16, 0.00,60.00,WinterDesignDay
7,-15.5
8,9.625
9,9.625
49,0.0
76,-18.358199193592366
77,-18.357816352208033
78,-18.356940590333227
79,-0.031803935459776334
80,-0.03185788517798788
81,-18.355681987074085
2,1,12,21, 0,17, 0.00,60.00,WinterDesignDay
7,-15.5
8,10.0
9,10.0
49,0.0
76,-18.358277955139666
77,-18.357898179233857
78,-18.357020107041155
79,-0.03137575674772908
80,-0.031428980928370806
81,-18.355762258942644
2,1,12,21, 0,18, 0.00,60.00,WinterDesignDay
7,-15.5
8,10.0
9,10.0
49,0.0
76,-18.35835565628248
77,-18.357975286969463
78,-18.35709855278347
79,-0.030953336132222287
80,-0.031005844499293604
81,-18.355841449284465
2,1,12,21, 0,19, 0.00,60.00,WinterDesignDay
7,-15.5
8,10.0
9,10.0
49,0.0
76,-18.358432311281888
77,-18.358052049261904
78,-18.357175941974695
79,-0.030536596374774128
80,-0.03058839853507428
81,-18.355919572667503
2,1,12,21, 0,20, 0.00,60.00,WinterDesignDay
7,-15.5
8,10.0
9,10.0
49,0.0
76,-18.358507934207672
77,-18.358128527473873
78,-18.357252288835646
79,-0.03012546127348026
80,-0.030176566706268462
81,-18.355996643463616
2,1,12,21, 0,21, 0.00,60.00,WinterDesignDay
7,-15.5
8,10.0
9,10.0
49,0.0
76,-18.35858253894082
77,-18.358201660713465
78,-18.357327607395987
79,-0.029719855637475145
80,-0.029770273682716886
81,-18.356072675851152
2,1,12,21, 0,22, 0.00,60.00,WinterDesignDay
7,-15.5
8,10.0
9,10.0
49,0.0
76,-18.35865613917608
77,-18.35827713603122
78,-18.357401911496844
79,-0.029319705293468612
80,-0.029369445164931115
81,-18.356147683817603
2,1,12,21, 0,23, 0.00,60.00,WinterDesignDay
7,-15.5
8,7.5
9,7.5
49,0.0
76,-18.3587287484245
77,-18.3583498599251
78,-18.35747521479333
79,-0.028924937031407527
80,-0.028974007849371583
81,-18.356221681162154
2,1,12,21, 0,24, 0.00,60.00,WinterDesignDay
7,-15.5
8,4.125
9,4.125
49,0.0
76,-18.35880038001577
77,-18.35842011716985
78,-18.35754753075698
79,-0.028535478629484246
80,-0.028583889368109648
81,-18.356294681498195
3,1,12,21, 0,WinterDesignDay
10,0.0,0.0, 1,15,0.0, 1,15
11,10.000000,10.0, 1,15,10.0, 1,15
53,-18.291560470640125,-18.292456968427683,24,60,-18.290563565532274, 1,15
54,-17.415119671266876,-17.415146088682697,24,60,-17.415090295196055, 1,15
55,0.5301509905412215,0.5300245290571475, 1,15,0.5302648610443542,24,60
56,7.416511626158916,7.4165105950926105,24,60,7.416512772720996, 1,15
57,-18.294896673768772,-18.29579312643428,24,60,-18.293899818684714, 1,15
58,-17.461668981107664,-17.46169601561134,24,60,-17.461638918838673, 1,15
59,0.5211088317400273,0.5209778039250296, 1,15,0.5212268122086189,24,60
60,7.1515058624628445,7.151504982926298,24,60,7.151506840523743, 1,15
61,-18.294896673768772,-18.29579312643428,24,60,-18.293899818684714, 1,15
62,-17.461668981107664,-17.46169601561134,24,60,-17.461638918838673, 1,15
63,0.5211088317400273,0.5209778039250296, 1,15,0.5212268122086189,24,60
64,7.1515058624628445,7.151504982926298,24,60,7.151506840523743, 1,15
65,-18.291560470640125,-18.292456968427683,24,60,-18.290563565532274, 1,15
66,-17.415119671266876,-17.415146088682697,24,60,-17.415090295196055, 1,15
67,0.5301509905412215,0.5300245290571475, 1,15,0.5302648610443542,24,60
68,7.416511626158916,7.4165105950926105,24,60,7.416512772720996, 1,15
69,-18.361422308642542,-18.362474661649316,24,60,-18.360252051763734, 1,15
70,-18.361398870895496,-18.362454799409957,24,60,-18.360224637932955, 1,15
71,0.11571387604070109,0.11432070054226119, 1,15,0.11694698321749754,24,60
72,-18.423870526400066,-18.424805171210142,24,60,-18.422831199249103, 1,15
73,-20.30794027847966,-20.307954277243052,24,60,-20.307924711801657, 1,15
74,0.6142303362154503,0.6142164730501205,24,60,0.6142455103079221, 1,15
75,8.618824653874883,8.618824286790145,24,60,8.618825062075343, 1,15
4,1,12
50,30412800.0,9999.0, 0, 0, 0,316800.0,21, 1,15
51,-30412800.0,-316800.0,21, 1,15,-9999.0, 0, 0, 0
52,0.0,0.0,21, 1,15,0.0,21, 1,15
1,DENVER CENTENNIAL  GOLDEN   N ANN CLG 1% CONDNS DB=>MWB,  41.98, -87.92,  -6.00, 201.00
2,1, 7,21, 0, 1, 0.00,60.00,SummerDesignDay
7,18.966
8,6.75
9,6.75
49,0.0
76,29.380566218500856
77,19.00905266925596
78,29.310599283044596
79,-84.96263737929101
80,-84.86431193459
81,29.240632347588335
2,1, 7,21, 0, 2, 0.00,60.00,SummerDesignDay
7,18.244
8,9.625
9,9.625
49,0.0
76,29.13098429193038
77,18.86898615862322
78,29.061071609793586
79,-83.28220065001203
80,-83.68068486418144
81,28.991158927656794
2,1, 7,21, 0, 3, 0.00,60.00,SummerDesignDay
7,17.731
8,10.0
9,10.0
49,0.0
76,28.887452867644626
77,18.732136201014242
78,28.81770589439827
79,-81.67941792081734
80,-81.87135189729095
81,28.747958921151913
2,1, 7,21, 0, 4, 0.00,60.00,SummerDesignDay
7,17.275000000000002
8,10.0
9,10.0
49,0.0
76,28.646098984527857
77,18.596063880692533
78,28.575718463203156
79,-82.11783457627303
80,-82.00513259996873
81,28.50533794187845
2,1, 7,21, 0, 5, 0.00,60.00,SummerDesignDay
7,16.913999999999998
8,10.0
9,10.0
49,0.0
76,28.407832466343997
77,18.463080222059745
78,28.341996175023862
79,-74.03202803021075
80,-77.44855066476094
81,28.276159883703734
2,1, 7,21, 0, 6, 0.00,60.00,SummerDesignDay
7,16.990000000000002
8,10.0
9,10.0
49,0.0
76,28.387731294542924
77,18.479171341952004
78,28.413344164835234
79,71.29478210033568
80,51.230091035722324
81,28.43895703512754
2,1, 7,21, 0, 7, 0.00,60.00,SummerDesignDay
7,17.769
8,10.0
9,10.0
49,0.0
76,28.65533129826731
77,18.63713060622561
78,28.7045096326448
79,92.08453850367272
80,94.48437191629523
81,28.753687967022287
2,1, 7,21, 0, 8, 0.00,60.00,SummerDesignDay
7,19.783
8,8.75
9,8.75
49,0.0
76,28.938248556611555
77,18.80090076665335
78,29.002497916215578
79,110.33831987364417
80,104.19664461680065
81,29.0667472758196
2,1, 7,21, 0, 9, 0.00,60.00,SummerDesignDay
7,22.557
8,3.0
9,3.0
49,0.0
76,29.327309823209774
77,19.025037697345567
78,29.410261127009683
79,146.40853784859496
80,144.38627328919307
81,29.493212430809603
2,1, 7,21, 0,10, 0.00,60.00,SummerDesignDay
7,25.255000000000003
8,1.25
9,0.0
49,0.0
76,29.75566444506555
77,19.26421344511558
78,29.835879404157687
79,139.13324335279555
80,141.07318018491344
81,29.916094363249822
2,1, 7,21, 0,11, 0.00,60.00,SummerDesignDay
7,27.649
8,0.75
9,0.0
49,0.0
76,30.142424495980784
77,19.477642318863833
78,30.213574017831064
79,120.4043722650532
80,123.13654806291198
81,30.28472353968134
2,1, 7,21, 0,12, 0.00,60.00,SummerDesignDay
7,29.454
8,3.75
9,1.25
49,0.0
76,30.457409516728266
77,19.648675621603964
78,30.51315368700314
79,91.03639369437019
80,94.85311376086581
81,30.568897857278017
2,1, 7,21, 0,13, 0.00,60.00,SummerDesignDay
7,30.784
8,8.5
9,5.75
49,0.0
76,30.74980530011817
77,19.81621297171903
78,30.821538408779144
79,116.10317545301416
80,110.00668517147051
81,30.893271517440112
2,1, 7,21, 0,14, 0.00,60.00,SummerDesignDay
7,31.715
8,10.0
9,8.625
49,0.0
76,31.10763608948028
77,20.011769118881364
78,31.16865009567217
79,116.05144994588554
80,118.69466286243933
81,31.229664101864056
2,1, 7,21, 0,15, 0.00,60.00,SummerDesignDay
7,32.0
8,9.375
9,9.0
49,0.0
76,31.407549266972524
77,20.16916968897695
78,31.43899134532337
79,82.2627846054524
80,87.334723070958
81,31.470433423674212
2,1, 7,21, 0,16, 0.00,60.00,SummerDesignDay
7,31.43
8,9.625
9,9.625
49,0.0
76,31.5828214175073
77,20.25365696712896
78,31.57244584306152
79,33.240902180171126
80,40.04008812562004
81,31.562070268615734
2,1, 7,21, 0,17, 0.00,60.00,SummerDesignDay
7,30.328
8,10.0
9,10.0
49,0.0
76,31.61964398499908
77,20.261574754564577
78,31.56775285175583
79,-3.655119447462207
80,-0.5064906900583137
81,31.515861718512586
2,1, 7,21, 0,18, 0.00,60.00,SummerDesignDay
7,28.922
8,10.0
9,10.0
49,0.0
76,31.546724578971215
77,20.209907621528224
78,31.45710713377405
79,-56.860690083445
80,-46.447774943264676
81,31.36748968857688
2,1, 7,21, 0,19, 0.00,60.00,SummerDesignDay
7,26.927
8,10.0
9,10.0
49,0.0
76,31.201731074761803
77,20.00312713143653
78,31.060031751501796
79,-184.36811228081268
80,-165.82937791898897
81,30.918332428241786
2,1, 7,21, 0,20, 0.00,60.00,SummerDesignDay
7,25.027
8,10.0
9,10.0
49,0.0
76,30.64527825209675
77,19.710676472250682
78,30.559067947191284
79,-141.6566921147706
80,-161.63382088028598
81,30.472857642285817
2,1, 7,21, 0,21, 0.00,60.00,SummerDesignDay
7,23.544999999999998
8,10.0
9,10.0
49,0.0
76,30.344541582182536
77,19.550159927345227
78,30.2815617308277
79,-81.64422176424576
80,-82.78173868053332
81,30.218581879472865
2,1, 7,21, 0,22, 0.00,60.00,SummerDesignDay
7,22.177
8,10.0
9,10.0
49,0.0
76,30.10995410072142
77,19.41896104722032
78,30.045888213947837
79,-79.71028048747326
80,-79.25902004625429
81,29.98182232717425
2,1, 7,21, 0,23, 0.00,60.00,SummerDesignDay
7,20.999000000000002
8,7.5
9,7.5
49,0.0
76,29.872321162264484
77,19.28576818926256
78,29.80683524699177
79,-80.16576237616354
80,-80.28555569963717
81,29.741349331719057
2,1, 7,21, 0,24, 0.00,60.00,SummerDesignDay
7,19.935000000000002
8,4.125
9,4.125
49,0.0
76,29.631340419537654
77,19.150136376227497
78,29.56320598651063
79,-83.09450080898564
80,-82.59519105245747
81,29.49507155348361
3,1, 7,21, 0,SummerDesignDay
10,0.0,0.0, 1,15,0.0, 1,15
11,9.000000,9.0, 1,15,9.0, 1,15
53,29.88417134695617,27.723024921641933, 5,60,31.944579881082998,15,30
54,28.05989545290406,15.533859035356036, 5,45,48.40782894417362,13,30
55,1.0040796551830642,0.3376846193321626,17,30,1.2348690531072897,13,45
56,11.654515186231615,11.426184202241126,14,45,12.252915802335078,19,45
57,30.014584183923645,27.736681225080154, 5,45,31.672181115111155,16,15
58,31.04435423145107,15.364098607910723, 5,45,55.7544489603685, 9,15
59,1.0235497421810662,0.35328157141788674,17,30,1.4030647442725395, 9,30
60,9.794572938551793,9.648736218727173,12,45,10.184303687279371,19,45
61,29.791435493088965,27.73666738621537, 5,45,31.672181115111144,16,15
62,25.831902315540642,15.36379085566214, 5,45,36.13633919146283,18,30
63,0.8283669068599787,0.14132947394891832, 9,60,1.128046736221168, 5,60
64,9.757623612862373,9.651454283764105, 7,30,10.06893256996695, 6,15
65,29.97489164366252,27.723024921641912, 5,60,32.796561538680656,16,60
66,30.232468249238224,15.533859035356036, 5,45,61.64954632281186,16,60
67,1.0129417503842346,0.30125109491664426,10,15,1.388301847822668,16,45
68,11.64831909317803,11.426183911840308,14,30,12.067363260056839, 6,45
69,29.960000061597125,28.870219749269964, 7,45,31.048599980328294,18,60
70,29.95998309223145,28.870219749269964, 7,60,31.048599980328294,19,15
71,0.9133681926748934,0.14499419352332923, 8,45,1.3361823455317319, 5,60
72,30.027191721050603,27.99108970520229, 5,60,31.929543264408206,15,60
73,32.31634255193887,12.974573885569892, 5,45,60.63705240337942,13,30
74,0.8007779710719007,0.12094761929270105,18,15,1.1289195136670682,20,15
75,13.380202199601605,13.087110660650977,17,30,13.86879413002821, 6,45
4,1, 7
50,30412800.0,316800.0,21, 1,15,316800.0,21, 1,15
51,-30412800.0,-316800.0,21, 1,15,-316800.0,21, 1,15
52,0.0,0.0,21, 1,15,0.0,21, 1,15
1,RUN PERIOD 1,  41.98, -87.92,  -6.00, 201.00
2,1, 1, 1, 0, 1, 0.00,60.00,Tuesday
7,-8.2625
8,6.75
9,6.75
49,0.0
76,-4.099906332633847
77,-5.102486649281551
78,-4.234129073178517
79,-195.46616973402027
80,-160.51982345099262
81,-4.3683518137231845
2,1, 1, 1, 0, 2, 0.00,60.00,Tuesday
7,-11.8875
8,9.625
9,9.625
49,0.0
76,-4.601842497538158
77,-5.450601880716248
78,-4.677543624192909
79,-116.66242004793058
80,-147.71382340318038
81,-4.753244750847662
2,1, 1, 1, 0, 3, 0.00,60.00,Tuesday
7,-11.325
8,10.0
9,10.0
49,0.0
76,-4.785381107494674
77,-5.5805788648681665
78,-4.835237721639038
79,-47.42845608987109
80,-48.56822414217348
81,-4.885094335783402
2,1, 1, 1, 0, 4, 0.00,60.00,Tuesday
7,-11.1
8,10.0
9,10.0
49,0.0
76,-4.897195001626875
77,-5.66440792018979
78,-4.9441146204994
79,-41.83146039209481
80,-41.74493800210642
81,-4.991034239371928
2,1, 1, 1, 0, 5, 0.00,60.00,Tuesday
7,-10.7875
8,10.0
9,10.0
49,0.0
76,-4.999290475688495
77,-5.739452998304662
78,-5.041611811240907
79,-35.09170469128101
80,-36.360378693374926
81,-5.083933146793321
2,1, 1, 1, 0, 6, 0.00,60.00,Tuesday
7,-10.6
8,10.0
9,10.0
49,0.0
76,-5.092247765624448
77,-5.80956785627122
78,-5.136086094160891
79,-38.690135008734806
80,-37.49120279339126
81,-5.1799244226973356
2,1, 1, 1, 0, 7, 0.00,60.00,Tuesday
7,-10.6
8,10.0
9,10.0
49,0.0
76,-5.194823908989929
77,-5.886210145283553
78,-5.237639455744789
79,-38.42252653372749
80,-38.94734305144044
81,-5.28045500249965
2,1, 1, 1, 0, 8, 0.00,60.00,Tuesday
7,-10.225
8,8.75
9,8.75
49,0.0
76,-5.230541923812575
77,-5.892032044270736
78,-5.203368329383558
79,54.94475276806705
80,28.52450022296548
81,-5.176194734954541
2,1, 1, 1, 0, 9, 0.00,60.00,Tuesday
7,-9.3125
8,3.0
9,3.0
49,0.0
76,-4.802800139517338
77,-5.539869950264143
78,-4.669466442611679
79,238.05044551130055
80,227.891356839082
81,-4.536132745706018
2,1, 1, 1, 0,10, 0.00,60.00,Tuesday
7,-7.525
8,1.25
9,0.0
49,0.0
76,-4.215120689647245
77,-5.124319042289681
78,-4.156180921403852
79,183.21029754298067
80,198.41949516415693
81,-4.09724115316046
2,1, 1, 1, 0,11, 0.00,60.00,Tuesday
7,-5.6375
8,0.75
9,0.0
49,0.0
76,-3.823994849522852
77,-4.845028477518557
78,-3.793942145901375
79,126.79919962087205
80,130.14997928852992
81,-3.763889442279898
2,1, 1, 1, 0,12, 0.00,60.00,Tuesday
7,-3.9375
8,3.75
9,1.25
49,0.0
76,-3.578517304684433
77,-4.678323701419175
78,-3.586772594150079
79,50.01876945294242
80,63.2957052091162
81,-3.5950278836157255
2,1, 1, 1, 0,13, 0.00,60.00,Tuesday
7,-2.6125
8,8.5
9,5.75
49,0.0
76,-3.550094950593655
77,-4.6651823179440495
78,-3.5740884303700065
79,-5.254381974077997
80,-7.301428119202154
81,-3.598081910146358
2,1, 1, 1, 0,14, 0.00,60.00,Tuesday
7,-1.5125000000000002
8,10.0
9,8.625
49,0.0
76,-3.5189223222702433
77,-4.634544388163464
78,-3.5134663605582883
79,29.735587802010322
80,26.271716654571044
81,-3.508010398846334
2,1, 1, 1, 0,15, 0.00,60.00,Tuesday
7,-1.1
8,9.375
9,9.0
49,0.0
76,-3.4345081796575627
77,-4.577083610408381
78,-3.4447038687429297
79,18.710921718876747
80,25.142604287756193
81,-3.454899557828297
2,1, 1, 1, 0,16, 0.00,60.00,Tuesday
7,-1.1
8,9.625
9,9.625
49,0.0
76,-3.4680207661983804
77,-4.615470256390687
78,-3.523931813580684
79,-40.59248618543144
80,-35.11131702120798
81,-3.579842860962987
2,1, 1, 1, 0,17, 0.00,60.00,Tuesday
7,-1.1
8,10.0
9,10.0
49,0.0
76,-3.6401882584471124
77,-4.75217376970011
78,-3.72881230244178
79,-85.45814150473397
80,-82.012729444265
81,-3.8174363464364482
2,1, 1, 1, 0,18, 0.00,60.00,Tuesday
7,-1.4749999999999999
8,10.0
9,10.0
49,0.0
76,-3.82969921327002
77,-4.880940502962176
78,-3.8811401705515625
79,-51.861328584803104
80,-56.99417795320204
81,-3.932581127833105
2,1, 1, 1, 0,19, 0.00,60.00,Tuesday
7,-2.0125
8,10.0
9,10.0
49,0.0
76,-3.915541170297167
77,-4.931673931452656
78,-3.92451084777539
79,-11.880858465155317
80,-17.335160390945347
81,-3.933480525253613
2,1, 1, 1, 0,20, 0.00,60.00,Tuesday
7,-1.5125000000000002
8,10.0
9,10.0
49,0.0
76,-3.902959364370349
77,-4.912228576617112
78,-3.878135337161642
79,20.021321496383877
80,16.363565684306586
81,-3.8533113099529364
2,1, 1, 1, 0,21, 0.00,60.00,Tuesday
7,-1.4749999999999999
8,10.0
9,10.0
49,0.0
76,-3.864824817237198
77,-4.897599801533999
78,-3.8788631680974675
79,-6.974442619160142
80,1.543671546821403
81,-3.892901518957738
2,1, 1, 1, 0,22, 0.00,60.00,Tuesday
7,-1.3249999999999997
8,10.0
9,10.0
49,0.0
76,-3.8845604281232773
77,-4.904373215652449
78,-3.8686975786737454
79,11.912449465712232
80,3.130243363026167
81,-3.852834729224214
2,1, 1, 1, 0,23, 0.00,60.00,Tuesday
7,-1.4749999999999999
8,7.5
9,7.5
49,0.0
76,-3.8474993184467032
77,-4.8854935488845275
78,-3.8536378091928287
79,-0.20894615428064078
80,6.615715245882417
81,-3.859776299938954
2,1, 1, 1, 0,24, 0.00,60.00,Tuesday
7,-1.7
8,4.125
9,4.125
49,0.0
76,-3.8806101156794637
77,-4.914936703930378
78,-3.8994600911843342
79,-17.22382916135171
80,-17.759481833340832
81,-3.918310066689205
3,1, 1, 1, 0,Tuesday
10,0.0,0.0, 1,15,0.0, 1,15
11,3.000000,3.0, 1,15,3.0, 1,15
53,-3.997720860536685,-5.661467878382753, 8,15,-2.1851433226864763,12,30
54,-0.4292091940610147,-13.365068541812088, 1,60,23.98908881083719,11,30
55,0.900185229541488,0.2094042702284916,21,60,1.5031172384809948,11,45
56,7.058647212723449,1.4702123098978626,21,60,13.079122426873042,11,45
57,-4.131332070161267,-5.661472970872308, 8,15,-3.0868457375910374,11,30
58,-2.9019341335743607,-13.362183642597234, 1,60,15.677677521622392, 9,60
59,0.8088809428301547,0.21021971255093175,19,45,1.4046647617005033, 9,45
60,6.608552345230735,1.5250946786239465,21,60,10.666831686681888,12,60
61,-4.278871041282977,-5.6627026651284424, 8,15,-3.1999387688490786,15,15
62,-5.529211839808377,-13.365126107782139, 1,60,1.555197140850417,14,30
63,0.6946322300961344,0.210219747899927,19,45,1.1642680302553572, 2,15
64,6.624719614350657,1.5250476471061092,21,60,10.846257798510218,10,60
65,-4.253667823397033,-5.661467878382753, 8,15,-2.948861216045454,15,30
66,-5.09711061341812,-13.365068541812054, 1,60,5.517295211210299,15,30
67,0.7256150219033332,0.14197170965998374,11,45,1.1642567793713836, 2,15
68,7.1232720771411095,1.4701886092627987,21,60,13.544717289032377,10,60
69,-4.215545136720791,-4.824702911890006, 8,45,-3.890392290834894,23,30
70,-4.2155265334758125,-4.824702911890006, 8,60,-3.890392290834894,23,45
71,0.6810696678817458,0.1, 1,15,1.2551578583718854, 3,30
72,-4.2409093677995955,-5.508565466821381, 8,15,-3.2957287215567668,15,15
73,-5.831114113429961,-15.663145716914094, 1,60,6.9920541549781285,12,30
74,0.6695969924239726,0.13228232668820664,21,30,1.1955774635616765, 2,15
75,8.029512494934297,1.2603805934189214,21,60,15.09192742981988,10,60
2,2, 1, 2, 0, 1, 0.00,60.00,Wednesday
7,-3.0749999999999997
8,2.375
9,2.375
49,0.0
76,-3.962199305573789
77,-4.9842165552190565
78,-4.010796432421755
79,-54.324015039179116
80,-46.703862231074396
81,-4.059393559269722
2,2, 1, 2, 0, 2, 0.00,60.00,Wednesday
7,-3.2124999999999995
8,3.25
9,2.625
49,0.0
76,-4.077933629296171
77,-5.058389598001389
78,-4.088134441643675
79,-12.449170695264124
80,-24.12626576027271
81,-4.098335253991179
2,2, 1, 2, 0, 3, 0.00,60.00,Wednesday
7,-3.1125
8,2.75
9,2.375
49,0.0
76,-4.086245034781472
77,-5.067877640963078
78,-4.1011865526655225
79,-10.740281198522919
80,-5.682177222281784
81,-4.116128070549571
2,2, 1, 2, 0, 4, 0.00,60.00,Wednesday
7,-2.9875
8,5.75
9,4.5
49,0.0
76,-4.122208169120205
77,-5.094101363065278
78,-4.131910553841681
79,-8.212290389920062
80,-11.270382236473688
81,-4.141612938563158
2,2, 1, 2, 0, 5, 0.00,60.00,Wednesday
7,-1.7374999999999998
8,9.25
9,7.25
49,0.0
76,-4.093568616088493
77,-5.057886395723461
78,-4.053293811832728
79,34.164582328304505
80,27.56669399446575
81,-4.013019007576962
2,2, 1, 2, 0, 6, 0.00,60.00,Wednesday
7,-1.1
8,10.0
9,8.0
49,0.0
76,-3.993990594748002
77,-4.987054869446652
78,-3.963422128887351
79,29.992380207363567
80,34.16564868986517
81,-3.932853663026699
2,2, 1, 2, 0, 7, 0.00,60.00,Wednesday
7,-0.7875000000000001
8,10.0
9,9.25
49,0.0
76,-3.926224630573144
77,-4.93633672963364
78,-3.9001255876348213
79,27.42686475792163
80,25.776789552858908
81,-3.8740265446964983
2,2, 1, 2, 0, 8, 0.00,60.00,Wednesday
7,-0.6
8,10.0
9,10.0
49,0.0
76,-3.8427472745095286
77,-4.872969781378451
78,-3.8085759935126986
79,39.52133841033095
80,36.84423622701486
81,-3.7744047125158686
2,2, 1, 2, 0, 9, 0.00,60.00,Wednesday
7,-0.225
8,10.0
9,10.0
49,0.0
76,-3.6835465948993233
77,-4.745145386816517
78,-3.617651039874776
79,86.42090204436448
80,78.86577106104383
81,-3.5517554848502293
2,2, 1, 2, 0,10, 0.00,60.00,Wednesday
7,0.375
8,10.0
9,10.0
49,0.0
76,-3.38955641858929
77,-4.524638742699016
78,-3.314259408488418
79,121.64594741446659
80,122.80359561560024
81,-3.238962398387546
2,2, 1, 2, 0,11, 0.00,60.00,Wednesday
7,1.2874999999999999
8,10.0
9,10.0
49,0.0
76,-3.1026957988123387
77,-4.321200244515551
78,-3.0447988554036707
79,103.93040894507152
80,102.4544976142908
81,-2.9869019119950027
2,2, 1, 2, 0,12, 0.00,60.00,Wednesday
7,1.7
8,10.0
9,10.0
49,0.0
76,-2.787992369637903
77,-4.090794582648975
78,-2.718987608617147
79,132.10767689291916
80,129.77312236010295
81,-2.6499828475963922
2,2, 1, 2, 0,13, 0.00,60.00,Wednesday
7,1.7
8,10.0
9,10.0
49,0.0
76,-2.4074134852216997
77,-3.8174074165891794
78,-2.3341298605958696
79,152.51473138580343
80,151.0346607358179
81,-2.26084623597004
2,2, 1, 2, 0,14, 0.00,60.00,Wednesday
7,0.6375
8,10.0
9,10.0
49,0.0
76,-2.173639215292312
77,-3.683442603697888
78,-2.2049145982042466
79,-5.616106399863277
80,22.218907073454076
81,-2.236189981116181
2,2, 1, 2, 0,15, 0.00,60.00,Wednesday
7,-0.375
8,10.0
9,10.0
49,0.0
76,-2.2845516930442753
77,-3.7734950360588746
78,-2.3368219284924385
79,-48.47532142450589
80,-51.815163648189646
81,-2.389092163940602
2,2, 1, 2, 0,16, 0.00,60.00,Wednesday
7,0.15
8,10.0
9,10.0
49,0.0
76,-2.4182016555011963
77,-3.8742941351737934
78,-2.4719552577660338
79,-45.40166296712571
80,-48.231319692362646
81,-2.525708860030872
2,2, 1, 2, 0,17, 0.00,60.00,Wednesday
7,0.6
8,10.0
9,10.0
49,0.0
76,-2.513494736265945
77,-3.9401770624212973
78,-2.5517820364964274
79,-28.556099143646428
80,-30.050019107448687
81,-2.59006933672691
2,2, 1, 2, 0,18, 0.00,60.00,Wednesday
7,-0.15
8,10.0
9,10.0
49,0.0
76,-2.575903709572739
77,-3.985085777651545
78,-2.6124717526199888
79,-24.91181296335045
80,-22.68062691978501
81,-2.6490397956672376
2,2, 1, 2, 0,19, 0.00,60.00,Wednesday
7,0.15
8,10.0
9,10.0
49,0.0
76,-2.6241324834182738
77,-4.014244162488354
78,-2.6272933120208872
79,0.5933901824679948
80,-6.443295973029334
81,-2.6304541406235002
2,2, 1, 2, 0,20, 0.00,60.00,Wednesday
7,0.9125000000000001
8,10.0
9,10.0
49,0.0
76,-2.581058511640079
77,-3.9791651138300876
78,-2.563705711283905
79,24.516315597740522
80,23.861195412857118
81,-2.5463529109277308
2,2, 1, 2, 0,21, 0.00,60.00,Wednesday
7,1.4749999999999999
8,10.0
9,10.0
49,0.0
76,-2.5055250672155625
77,-3.926712065626273
78,-2.482909157083713
79,32.24055391432172
80,31.117260604724194
81,-2.460293246951863
2,2, 1, 2, 0,22, 0.00,60.00,Wednesday
7,2.0125
8,10.0
9,10.0
49,0.0
76,-2.415647359023586
77,-3.8645239915988903
78,-2.3952962618282454
79,33.05208022854703
80,33.54245329857065
81,-2.3749451646329045
2,2, 1, 2, 0,23, 0.00,60.00,Wednesday
7,0.825
8,10.0
9,10.0
49,0.0
76,-2.3898052498686972
77,-3.867571082453482
78,-2.4353280560019193
79,-29.530273859136752
80,-16.64824302578315
81,-2.4808508621351413
2,2, 1, 2, 0,24, 0.00,60.00,Wednesday
7,0.0
8,10.0
9,10.0
49,0.0