Program Version,EnergyPlus, Version 25.1.0-68a4a7c774, YMD=2025.08.22 17:08
1,5,Environment Title[],Latitude[deg],Longitude[deg],Time Zone[],Elevation[m]
2,8,Day of Simulation[],Month[],Day of Month[],DST Indicator[1=yes 0=no],Hour[],StartMinute[],EndMinute[],DayType
3,5,Cumulative Day of Simulation[],Month[],Day of Month[],DST Indicator[1=yes 0=no],DayType  ! When Daily Report Variables Requested
4,2,Cumulative Days of Simulation[],Month[]  ! When Monthly Report Variables Requested
5,1,Cumulative Days of Simulation[] ! When Run Period Report Variables Requested
6,1,Calendar Year of Simulation[] ! When Annual Report Variables Requested
7,1,Environment,Site Outdoor Air Drybulb Temperature [C] !Hourly
8,1,Environment,Site Total Sky Cover [] !Hourly
9,1,Environment,Site Opaque Sky Cover [] !Hourly
10,7,Environment,Site Daylight Saving Time Status [] !Daily [Value,Min,Hour,Minute,Max,Hour,Minute]
11,7,Environment,Site Day Type Index [] !Daily [Value,Min,Hour,Minute,Max,Hour,Minute]
49,1,ZONE ONE,Zone Total Internal Latent Gain Energy [J] !Hourly
50,9,TEST 352A,Other Equipment Total Heating Energy [J] !Monthly [Value,Min,Day,Hour,Minute,Max,Day,Hour,Minute]
51,9,TEST 352 MINUS,Other Equipment Total Heating Energy [J] !Monthly [Value,Min,Day,Hour,Minute,Max,Day,Hour,Minute]
52,9,ZONE ONE,Zone Other Equipment Total Heating Energy [J] !Monthly [Value,Min,Day,Hour,Minute,Max,Day,Hour,Minute]
53,7,ZN001:WALL001,Surface Inside Face Temperature [C] !Daily [Value,Min,Hour,Minute,Max,Hour,Minute]
54,7,ZN001:WALL001,Surface Outside Face Temperature [C] !Daily [Value,Min,Hour,Minute,Max,Hour,Minute]
55,7,ZN001:WALL001,Surface Inside Face Convection Heat Transfer Coefficient [W/m2-K] !Daily [Value,Min,Hour,Minute,Max,Hour,Minute]
56,7,ZN001:WALL001,Surface Outside Face Convection Heat Transfer Coefficient [W/m2-K] !Daily [Value,Min,Hour,Minute,Max,Hour,Minute]
57,7,ZN001:WALL002,Surface Inside Face Temperature [C] !Daily [Value,Min,Hour,Minute,Max,Hour,Minute]
58,7,ZN001:WALL002,Surface Outside Face Temperature [C] !Daily [Value,Min,Hour,Minute,Max,Hour,Minute]
59,7,ZN001:WALL002,Surface Inside Face Convection Heat Transfer Coefficient [W/m2-K] !Daily [Value,Min,Hour,Minute,Max,Hour,Minute]
60,7,ZN001:WALL002,Surface Outside Face Convection Heat Transfer Coefficient [W/m2-K] !Daily [Value,Min,Hour,Minute,Max,Hour,Minute]
61,7,ZN001:WALL003,Surface Inside Face Temperature [C] !Daily [Value,Min,Hour,Minute,Max,Hour,Minute]
62,7,ZN001:WALL003,Surface Outside Face Temperature [C] !Daily [Value,Min,Hour,Minute,Max,Hour,Minute]
63,7,ZN001:WALL003,Surface Inside Face Convection Heat Transfer Coefficient [W/m2-K] !Daily [Value,Min,Hour,Minute,Max,Hour,Minute]
64,7,ZN001:WALL003,Surface Outside Face Convection Heat Transfer Coefficient [W/m2-K] !Daily [Value,Min,Hour,Minute,Max,Hour,Minute]
65,7,ZN001:WALL004,Surface Inside Face Temperature [C] !Daily [Value,Min,Hour,Minute,Max,Hour,Minute]
66,7,ZN001:WALL004,Surface Outside Face Temperature [C] !Daily [Value,Min,Hour,Minute,Max,Hour,Minute]
67,7,ZN001:WALL004,Surface Inside Face Convection Heat Transfer Coefficient [W/m2-K] !Daily [Value,Min,Hour,Minute,Max,Hour,Minute]
68,7,ZN001:WALL004,Surface Outside Face Convection Heat Transfer Coefficient [W/m2-K] !Daily [Value,Min,Hour,Minute,Max,Hour,Minute]
69,7,ZN001:FLR001,Surface Inside Face Temperature [C] !Daily [Value,Min,Hour,Minute,Max,Hour,Minute]
70,7,ZN001:FLR001,Surface Outside Face Temperature [C] !Daily [Value,Min,Hour,Minute,Max,Hour,Minute]
71,7,ZN001:FLR001,Surface Inside Face Convection Heat Transfer Coefficient [W/m2-K] !Daily [Value,Min,Hour,Minute,Max,Hour,Minute]
72,7,ZN001:ROOF001,Surface Inside Face Temperature [C] !Daily [Value,Min,Hour,Minute,Max,Hour,Minute]
73,7,ZN001:ROOF001,Surface Outside Face Temperature [C] !Daily [Value,Min,Hour,Minute,Max,Hour,Minute]
74,7,ZN001:ROOF001,Surface Inside Face Convection Heat Transfer Coefficient [W/m2-K] !Daily [Value,Min,Hour,Minute,Max,Hour,Minute]
75,7,ZN001:ROOF001,Surface Outside Face Convection Heat Transfer Coefficient [W/m2-K] !Daily [Value,Min,Hour,Minute,Max,Hour,Minute]
76,1,ZONE ONE,Zone Mean Air Temperature [C] !Hourly
77,1,ZONE ONE,Zone Wetbulb Globe Temperature [C] !Hourly
78,1,ZONE ONE,Zone Operative Temperature [C] !Hourly
79,1,ZONE ONE,Zone Air Heat Balance Surface Convection Rate [W] !Hourly
80,1,ZONE ONE,Zone Air Heat Balance Air Energy Storage Rate [W] !Hourly
81,1,ZONE ONE,Zone Mean Radiant Temperature [C] !Hourly
17,11,Electricity:Facility [J] !Annual [Value,Min,Month,Day,Hour,Minute,Max,Month,Day,Hour,Minute]
End of Data Dictionary
1,DENVER CENTENNIAL  GOLDEN   N ANN HTG 99% CONDNS DB,  41.98, -87.92,  -6.00, 201.00
2,1,12,21, 0, 1, 0.00,60.00,WinterDesignDay
7,-15.5
8,6.75
9,6.75
49,0.0
76,-18.21100929370753
77,-18.210598496222513
78,-18.20965857616272
79,-0.03478516652010155
80,-0.03485402377284453
81,-18.208307858617907
2,1,12,21, 0, 2, 0.00,60.00,WinterDesignDay
7,-15.5
8,9.625
9,9.625
49,0.0
76,-18.211095390627882
77,-18.210688285165492
78,-18.209745674257952
79,-0.034239384766742376
80,-0.03430716318495258
81,-18.208395957888023
2,1,12,21, 0, 3, 0.00,60.00,WinterDesignDay
7,-15.5
8,10.0
9,10.0
49,0.0
76,-18.21118013663727
77,-18.210770579789457
78,-18.20983140509654
79,-0.03370215385412756
80,-0.033768870294336166
81,-18.208482673555814
2,1,12,21, 0, 4, 0.00,60.00,WinterDesignDay
7,-15.5
8,10.0
9,10.0
49,0.0
76,-18.211263552902054
77,-18.21085672014797
78,-18.20991579012254
79,-0.03317334027704266
80,-0.03323901130627808
81,-18.20856802734302
2,1,12,21, 0, 5, 0.00,60.00,WinterDesignDay
7,-15.5
8,10.0
9,10.0
49,0.0
76,-18.21134566025809
77,-18.2109380768306
78,-18.20999885044436
79,-0.03265281258358188
80,-0.03271745454301461
81,-18.208652040630632
2,1,12,21, 0, 6, 0.00,60.00,WinterDesignDay
7,-15.5
8,10.0
9,10.0
49,0.0
76,-18.211426479215778
77,-18.211020846279308
78,-18.21008060684
79,-0.03214044135785121
80,-0.03220407032047485
81,-18.208734734464223
2,1,12,21, 0, 7, 0.00,60.00,WinterDesignDay
7,-15.5
8,10.0
9,10.0
49,0.0
76,-18.21150602996514
77,-18.21109898135493
78,-18.210161079762173
79,-0.03163609919700017
80,-0.03169873099193054
81,-18.208816129559214
2,1,12,21, 0, 8, 0.00,60.00,WinterDesignDay
7,-15.5
8,8.75
9,8.75
49,0.0
76,-18.211584332380784
77,-18.211178375565222
78,-18.210240289343417
79,-0.031139660667243163
80,-0.031201310874069455
81,-18.208896246306047
2,1,12,21, 0, 9, 0.00,60.00,WinterDesignDay
7,-15.5
8,3.0
9,3.0
49,0.0
76,-18.211661406026792
77,-18.211255203604615
78,-18.210318255401027
79,-0.030651002284041606
80,-0.030711686241411403
81,-18.208975104775263
2,1,12,21, 0,10, 0.00,60.00,WinterDesignDay
7,-15.5
8,1.25
9,0.0
49,0.0
76,-18.211737270161507
77,-18.211331664510027
78,-18.210394997442
79,-0.030170002474958046
80,-0.030229735279560178
81,-18.20905272472249
2,1,12,21, 0,11, 0.00,60.00,WinterDesignDay
7,-15.5
8,0.75
9,0.0
49,0.0
76,-18.21181194374233
77,-18.211405570844857
78,-18.210470534667877
79,-0.029696541548069888
80,-0.02975533807099332
81,-18.20912912559342
2,1,12,21, 0,12, 0.00,60.00,WinterDesignDay
7,-15.5
8,3.75
9,1.25
49,0.0
76,-18.211885445430337
77,-18.211478508639182
78,-18.21054488597949
79,-0.029230501681077214
80,-0.029288376554147903
81,-18.209204326528642
2,1,12,21, 0,13, 0.00,60.00,WinterDesignDay
7,-15.5
8,8.5
9,5.75
49,0.0
76,-18.21195779359493
77,-18.211553513019652
78,-18.210618069981678
79,-0.028771766874204907
80,-0.02882873450767558
81,-18.209278346368432
2,1,12,21, 0,14, 0.00,60.00,WinterDesignDay
7,-15.5
8,10.0
9,8.625
49,0.0
76,-18.212029006318332
77,-18.211623368190512
78,-18.210690104987886
79,-0.0283202229269528
80,-0.028376297504579876
81,-18.209351203657434
2,1,12,21, 0,15, 0.00,60.00,WinterDesignDay
7,-15.5
8,9.375
9,9.0
49,0.0
76,-18.21209910140006
77,-18.211692884125526
78,-18.210761009024683
79,-0.027875757412853197
80,-0.02793095290414206
81,-18.209422916649306
2,1,12,21, 0,16, 0.00,60.00,WinterDesignDay
7,-15.5
8,9.625
9,9.625
49,0.0
76,-18.212168096361296
77,-18.21176409355496
78,-18.21083079983629
79,-0.027438259662466713
80,-0.027492589804242257
81,-18.209493503311293
2,1,12,21, 0,17, 0.00,60.00,WinterDesignDay
7,-15.5
8,10.0
9,10.0
49,0.0
76,-18.212236008449253
77,-18.211830530188124
78,-18.21089949488897
79,-0.027007620708223268
80,-0.027061099044094008
81,-18.209562981328695
2,1,12,21, 0,18, 0.00,60.00,WinterDesignDay
7,-15.5
8,10.0
9,10.0
49,0.0
76,-18.21230285464141
77,-18.21189867071248
78,-18.210967111375343
79,-0.026583733285627353
80,-0.02663637314278692
81,-18.209631368109278
2,1,12,21, 0,19, 0.00,60.00,WinterDesignDay
7,-15.5
8,10.0
9,10.0
49,0.0
76,-18.212368651649676
77,-18.21196632698763
78,-18.21103366621866
79,-0.026166491803819802
80,-0.026218306292191854
81,-18.209698680787653
2,1,12,21, 0,20, 0.00,60.00,WinterDesignDay
7,-15.5
8,10.0
9,10.0
49,0.0
76,-18.21243341592459
77,-18.212029031019593
78,-18.211099176077067
79,-0.025755792309169134
80,-0.02580679434295454
81,-18.209764936229547
2,1,12,21, 0,21, 0.00,60.00,WinterDesignDay
7,-15.5
8,10.0
9,10.0
49,0.0
76,-18.21249716365931
77,-18.212091621182758
78,-18.21116365734764
79,-0.02535153246540789
80,-0.02540173474184743
81,-18.209830151035973
2,1,12,21, 0,22, 0.00,60.00,WinterDesignDay
7,-15.5
8,10.0
9,10.0
49,0.0
76,-18.212559910793686
77,-18.212153518334922
78,-18.21122712617057
79,-0.024953611525704744
80,-0.025003026571324936
81,-18.209894341547457
2,1,12,21, 0,23, 0.00,60.00,WinterDesignDay
7,-15.5
8,7.5
9,7.5
49,0.0
76,-18.21262167301818
77,-18.212215116564686
78,-18.21128959843312
79,-0.024561930307382962
80,-0.024610570443062363
81,-18.20995752384806
2,1,12,21, 0,24, 0.00,60.00,WinterDesignDay
7,-15.5
8,4.125
9,4.125
49,0.0
76,-18.21268246577769
77,-18.212276225901597
78,-18.21135108977355
79,-0.02417639118665571
80,-0.024224268529283787
81,-18.21001971376942
3,1,12,21, 0,WinterDesignDay
10,0.0,0.0, 1,15,0.0, 1,15
11,10.000000,10.0, 1,15,10.0, 1,15
53,-18.144771071542355,-18.145533751200826,24,60,-18.143907828946936, 1,15
54,-17.46353699950273,-17.46356681639149,24,60,-17.463503251209264, 1,15
55,0.532262407331938,0.5321181726561911, 1,15,0.5323899709214386,24,60
56,7.15144535614698,7.151444387466289,24,60,7.151446452574055, 1,15
57,-18.144771071542355,-18.145533751200826,24,60,-18.143907828946936, 1,15
58,-17.46353699950273,-17.46356681639149,24,60,-17.463503251209264, 1,15
59,0.532262407331938,0.5321181726561911, 1,15,0.5323899709214386,24,60
60,7.15144535614698,7.151444387466289,24,60,7.151446452574055, 1,15
61,-18.14054666957674,-18.14130941318686,24,60,-18.139683354763246, 1,15
62,-17.417308632277,-17.417337776593826,24,60,-17.417275645234273, 1,15
63,0.5432021858914494,0.5430638879299732, 1,15,0.5433245012864187,24,60
64,7.416426571797302,7.41642543604087,24,60,7.416427857330103, 1,15
65,-18.14054666957674,-18.14130941318686,24,60,-18.139683354763246, 1,15
66,-17.417308632277,-17.417337776593826,24,60,-17.417275645234273, 1,15
67,0.5432021858914494,0.5430638879299732, 1,15,0.5433245012864187,24,60
68,7.416426571797302,7.41642543604087,24,60,7.416427857330103, 1,15
69,-18.215804876065366,-18.216732528039024,24,60,-18.21475486662548, 1,15
70,-18.215784014738798,-18.216715346052762,24,60,-18.214729840688566, 1,15
71,0.11968407080817417,0.11831571431014429, 1,15,0.12087504392561642,24,60
72,-18.282487228146813,-18.28329859815965,24,60,-18.28156887250184, 1,15
73,-20.305776274626417,-20.305788387841265,24,60,-20.30576256417174, 1,15
74,0.6282149868538399,0.6282126882740098, 1,15,0.628216815040029,24,60
75,8.618881220453499,8.618880902478576,24,60,8.618881580356987, 1,15
4,1,12
50,30412800.0,9999.0, 0, 0, 0,316800.0,21, 1,15
51,-30412800.0,-316800.0,21, 1,15,-9999.0, 0, 0, 0
52,0.0,0.0,21, 1,15,0.0,21, 1,15
1,DENVER CENTENNIAL  GOLDEN   N ANN CLG 1% CONDNS DB=>MWB,  41.98, -87.92,  -6.00, 201.00
2,1, 7,21, 0, 1, 0.00,60.00,SummerDesignDay
7,18.966
8,6.75
9,6.75
49,0.0
76,29.035390475230045
77,18.812897283818646
78,28.957564862222085
79,-97.31415863783707
80,-97.23125768907349
81,28.879739249214133
2,1, 7,21, 0, 2, 0.00,60.00,SummerDesignDay
7,18.244
8,9.625
9,9.625
49,0.0
76,28.750321971493012
77,18.652591990418152
78,28.67270194265712
79,-95.05884244830378
80,-95.56537828084862
81,28.595081913821225
2,1, 7,21, 0, 3, 0.00,60.00,SummerDesignDay
7,17.731
8,10.0
9,10.0
49,0.0
76,28.473109519003472
77,18.496460727149522
78,28.39579919429966
79,-92.96574929161322
80,-93.22037824641653
81,28.31848886959585
2,1, 7,21, 0, 4, 0.00,60.00,SummerDesignDay
7,17.275000000000002
8,10.0
9,10.0
49,0.0
76,28.19902497018878
77,18.3415476136341
78,28.121107993071533
79,-93.31623602358538
80,-93.20777596267999
81,28.043191015954278
2,1, 7,21, 0, 5, 0.00,60.00,SummerDesignDay
7,16.913999999999998
8,10.0
9,10.0
49,0.0
76,27.929124620564316
77,18.190470659487936
78,27.85639260489245
79,-83.70880411775295
80,-87.69495968198476
81,27.78366058922058
2,1, 7,21, 0, 6, 0.00,60.00,SummerDesignDay
7,16.990000000000002
8,10.0
9,10.0
49,0.0
76,27.90996373235917
77,18.20985613265273
78,27.937999453347526
79,82.15198881150245
80,59.60243198736434
81,27.96603517433588
2,1, 7,21, 0, 7, 0.00,60.00,SummerDesignDay
7,17.769
8,10.0
9,10.0
49,0.0
76,28.21122574809382
77,18.38778506212283
78,28.26446110110917
79,102.4759630254857
80,105.37916605378423
81,28.317696454124523
2,1, 7,21, 0, 8, 0.00,60.00,SummerDesignDay
7,19.783
8,8.75
9,8.75
49,0.0
76,28.525923496975786
77,18.569983986695224
78,28.594433834559233
79,124.15464218239983
80,116.66524786963373
81,28.66294417214268
2,1, 7,21, 0, 9, 0.00,60.00,SummerDesignDay
7,22.557
8,3.0
9,3.0
49,0.0
76,28.97058109211889
77,18.826383002692832
78,29.059234448474808
79,169.75924305560366
80,167.05035126568947
81,29.147887804830727
2,1, 7,21, 0,10, 0.00,60.00,SummerDesignDay
7,25.255000000000003
8,1.25
9,0.0
49,0.0
76,29.466168035422513
77,19.102735694412463
78,29.548563081631798
79,159.93908250615783
80,162.60252429527804
81,29.63095812784108
2,1, 7,21, 0,11, 0.00,60.00,SummerDesignDay
7,27.649
8,0.75
9,0.0
49,0.0
76,29.908009708896387
77,19.34643060514926
78,29.97827617261415
79,137.03851175466644
80,140.27390935818335
81,30.048542636331923
2,1, 7,21, 0,12, 0.00,60.00,SummerDesignDay
7,29.454
8,3.75
9,1.25
49,0.0
76,30.264464158521584
77,19.54002324327783
78,30.316551797529993
79,102.61043243117334
80,106.99411059318032
81,30.368639436538402
2,1, 7,21, 0,13, 0.00,60.00,SummerDesignDay
7,30.784
8,8.5
9,5.75
49,0.0
76,30.59958129542548
77,19.732579453712155
78,30.671150199881872
79,135.5658097853932
80,127.8804179477876
81,30.742719104338263
2,1, 7,21, 0,14, 0.00,60.00,SummerDesignDay
7,31.715
8,10.0
9,8.625
49,0.0
76,31.019494736904214
77,19.962179946934583
78,31.078307005565044
79,136.5912078734226
80,139.64794665383513
81,31.13711927422588
2,1, 7,21, 0,15, 0.00,60.00,SummerDesignDay
7,32.0
8,9.375
9,9.0
49,0.0
76,31.37249122852997
77,20.1477466792205
78,31.397271041818176
79,96.8782906560083
80,102.82724108061026
81,31.422050855106384
2,1, 7,21, 0,16, 0.00,60.00,SummerDesignDay
7,31.43
8,9.625
9,9.625
49,0.0
76,31.57940986651874
77,20.248016254669476
78,31.556524557256125
79,39.44290375267029
80,47.43671127490359
81,31.533639247993502
2,1, 7,21, 0,17, 0.00,60.00,SummerDesignDay
7,30.328
8,10.0
9,10.0
49,0.0
76,31.62637985239155
77,20.2599089740202
78,31.55651557483051
79,-1.746338376845687
80,1.514991320427879
81,31.486651297269468
2,1, 7,21, 0,18, 0.00,60.00,SummerDesignDay
7,28.922
8,10.0
9,10.0
49,0.0
76,31.543807207465605
77,20.203517282955342
78,31.438275768717233
79,-66.78876706640646
80,-54.27432128987438
81,31.332744329968865
2,1, 7,21, 0,19, 0.00,60.00,SummerDesignDay
7,26.927
8,10.0
9,10.0
49,0.0
76,31.139627716839346
77,19.962682902731572
78,30.977992561694325
79,-217.28686826541852
80,-195.11786040468974
81,30.81635740654931
2,1, 7,21, 0,20, 0.00,60.00,SummerDesignDay
7,25.027
8,10.0
9,10.0
49,0.0
76,30.48459295631357
77,19.61843874686828
78,30.38914887560624
79,-164.60631799466358
80,-188.85042089405067
81,30.293704794898897
2,1, 7,21, 0,21, 0.00,60.00,SummerDesignDay
7,23.544999999999998
8,10.0
9,10.0
49,0.0
76,30.14059686041064
77,19.43428741313036
78,30.070606387785595
79,-93.44001935046782
80,-94.46528392578307
81,30.000615915160548
2,1, 7,21, 0,22, 0.00,60.00,SummerDesignDay
7,22.177
8,10.0
9,10.0
49,0.0
76,29.871634957299893
77,19.28360566039104
78,29.80022745585515
79,-91.63028869964472
80,-91.09796399089907
81,29.728819954410415
2,1, 7,21, 0,23, 0.00,60.00,SummerDesignDay
7,20.999000000000002
8,7.5
9,7.5
49,0.0
76,29.59880922050039
77,19.13047486800152
78,29.525872950949136
79,-92.01651784485408
80,-92.18965888035795
81,29.452936681397883
2,1, 7,21, 0,24, 0.00,60.00,SummerDesignDay
7,19.935000000000002
8,4.125
9,4.125
49,0.0
76,29.322535046003658
77,18.974728453206772
78,29.24666567677408
79,-95.3420350544377
80,-94.77472819183126
81,29.170796307544503
3,1, 7,21, 0,SummerDesignDay
10,0.0,0.0, 1,15,0.0, 1,15
11,9.000000,9.0, 1,15,9.0, 1,15
53,29.637845205915866,27.099367485927072, 5,60,32.10141888993468,15,30
54,28.504833086648656,15.430563900672277, 5,45,50.112345645852805,13,30
55,1.0856231039849706,0.24792448131917622, 9,15,1.365068751809365,13,45
56,9.78879946770318,9.648607436904202,16,30,10.212088848155283,19,45
57,29.74629841850116,27.130689416371716, 5,45,31.658683649172957,16,15
58,30.391787897446946,15.593035427504532, 5,45,52.684739427652, 9,15
59,1.0738498010445203,0.2116371608850304,17,15,1.4684603810920214, 9,30
60,11.649281104201618,11.42651059799085,11,60,12.397646693986365,19,45
61,29.484029430924025,27.13067372333144, 5,45,31.658683649172925,16,15
62,25.642784565234304,15.592764048280173, 5,45,35.62156398925623,14,60
63,0.8715854532620454,0.19189255006120165,10,15,1.1962324830825612, 5,60
64,11.653770103496216,11.479682472092477, 7,30,12.038777764282521, 6,15
65,29.729029039857497,27.107080245763957, 5,60,33.106205152409196,16,60
66,30.228451221715243,15.592476222308438, 5,45,61.50589597697156,16,60
67,1.0827961446534677,0.19189255005520034,10,15,1.4986624614434625,16,60
68,11.651331806819698,11.426184454536417,14,30,12.117240551174563, 6,45
69,29.69840626497466,28.459190714790704, 7,45,30.948421648600494,19,15
70,29.698387298958735,28.459190714790704, 7,60,30.948421648600494,19,30
71,0.9594648688070416,0.1,20,15,1.3989922017212595, 5,60
72,29.773235854841143,27.511842966684153, 5,60,31.883675964178064,15,60
73,32.31393198612033,12.969844524798251, 5,45,60.63556815620641,13,30
74,0.8023927696195049,0.19654534830370463,17,60,1.153684570683384,20,15
75,13.380140584919763,13.087110787585782,17,30,13.868052431670735, 6,45
4,1, 7
50,30412800.0,316800.0,21, 1,15,316800.0,21, 1,15
51,-30412800.0,-316800.0,21, 1,15,-316800.0,21, 1,15
52,0.0,0.0,21, 1,15,0.0,21, 1,15
1,RUN PERIOD 1,  41.98, -87.92,  -6.00, 201.00
2,1, 1, 1, 0, 1, 0.00,60.00,Tuesday
7,-8.2625
8,6.75
9,6.75
49,0.0
76,-3.972995778520894
77,-5.013927004128284
78,-4.125329485738924
79,-233.17145389506862
80,-191.85131562188377
81,-4.277663192956956
2,1, 1, 1, 0, 2, 0.00,60.00,Tuesday
7,-11.8875
8,9.625
9,9.625
49,0.0
76,-4.5618671368246915
77,-5.423316518382638
78,-4.6459413714175195
79,-133.34587337800622
80,-170.49798741935038
81,-4.730015606010348
2,1, 1, 1, 0, 3, 0.00,60.00,Tuesday
7,-11.325
8,10.0
9,10.0
49,0.0
76,-4.769869423631809
77,-5.570816773329652
78,-4.825815717686561
79,-53.72455599197856
80,-54.860297254193114
81,-4.881762011741314
2,1, 1, 1, 0, 4, 0.00,60.00,Tuesday
7,-11.1
8,10.0
9,10.0
49,0.0
76,-4.8980390232971915
77,-5.66693009445013
78,-4.951256610683861
79,-48.62613925009051
80,-48.36170684778887
81,-5.004474198070529
2,1, 1, 1, 0, 5, 0.00,60.00,Tuesday
7,-10.7875
8,10.0
9,10.0
49,0.0
76,-5.016263489086403
77,-5.753797533418172
78,-5.064018602542216
79,-40.321197522757245
80,-41.8857571257067
81,-5.111773715998029
2,1, 1, 1, 0, 6, 0.00,60.00,Tuesday
7,-10.6
8,10.0
9,10.0
49,0.0
76,-5.123261832650876
77,-5.834510789389464
78,-5.172717080504727
79,-44.67335407499701
80,-43.25224132167234
81,-5.222172328358577
2,1, 1, 1, 0, 7, 0.00,60.00,Tuesday
7,-10.6
8,10.0
9,10.0
49,0.0
76,-5.241754936155512
77,-5.923085064517914
78,-5.290033847022507
79,-44.4341810687309
80,-45.02580420591475
81,-5.3383127578895015
2,1, 1, 1, 0, 8, 0.00,60.00,Tuesday
7,-10.225
8,8.75
9,8.75
49,0.0
76,-5.276129202678883
77,-5.923609918392053
78,-5.240064839176778
79,72.91692464184823
80,39.89952680078241
81,-5.204000475674674
2,1, 1, 1, 0, 9, 0.00,60.00,Tuesday
7,-9.3125
8,3.0
9,3.0
49,0.0
76,-4.7357611912970805
77,-5.485456648716859
78,-4.58776997762984
79,295.88172381064
80,284.4713920292404
81,-4.4397787639626
2,1, 1, 1, 0,10, 0.00,60.00,Tuesday
7,-7.525
8,1.25
9,0.0
49,0.0
76,-4.0248365902729795
77,-4.986436481448911
78,-3.9767305580535957
79,213.29898284771872
80,233.55239383339872
81,-3.9286245258342114
2,1, 1, 1, 0,11, 0.00,60.00,Tuesday
7,-5.6375
8,0.75
9,0.0
49,0.0
76,-3.5788192727394734
77,-4.66908587228956
78,-3.5657038426939813
79,142.22429206868
80,146.2634750953978
81,-3.552588412648489
2,1, 1, 1, 0,12, 0.00,60.00,Tuesday
7,-3.9375
8,3.75
9,1.25
49,0.0
76,-3.3131808184735214
77,-4.488802222718393
78,-3.340846242269882
79,48.417917943899276
80,64.28454948894202
81,-3.368511666066243
2,1, 1, 1, 0,13, 0.00,60.00,Tuesday
7,-2.6125
8,8.5
9,5.75
49,0.0
76,-3.302372245910502
77,-4.486846601761055
78,-3.3396151468127693
79,-11.669168178683261
80,-15.118257322011369
81,-3.3768580477150363
2,1, 1, 1, 0,14, 0.00,60.00,Tuesday
7,-1.5125000000000002
8,10.0
9,8.625
49,0.0
76,-3.2745490012215352
77,-4.4565680551379545
78,-3.2750958776916823
79,33.02399578447517
80,28.758727584439235
81,-3.275642754161828
2,1, 1, 1, 0,15, 0.00,60.00,Tuesday
7,-1.1
8,9.375
9,9.0
49,0.0
76,-3.176382080395216
77,-4.389463172452992
78,-3.193526522294511
79,22.172836892455894
80,29.743970385361784
81,-3.2106709641938065
2,1, 1, 1, 0,16, 0.00,60.00,Tuesday
7,-1.1
8,9.625
9,9.625
49,0.0
76,-3.220565554165918
77,-4.4367707569597306
78,-3.287272333262284
79,-51.114309082874584
80,-44.4674127326385
81,-3.35397911235865
2,1, 1, 1, 0,17, 0.00,60.00,Tuesday
7,-1.1
8,10.0
9,10.0
49,0.0
76,-3.4286318583806694
77,-4.599624329929929
78,-3.5283013710472484
79,-100.13836124015123
80,-96.79684391253527
81,-3.6279708837138265
2,1, 1, 1, 0,18, 0.00,60.00,Tuesday
7,-1.4749999999999999
8,10.0
9,10.0
49,0.0
76,-3.6466717004021363
77,-4.747415871155276
78,-3.7035271078999212
79,-58.750940096029765
80,-64.63134029844007
81,-3.760382515397706
2,1, 1, 1, 0,19, 0.00,60.00,Tuesday
7,-2.0125
8,10.0
9,10.0
49,0.0
76,-3.7442746879021165
77,-4.805613930138805
78,-3.755020543894132
79,-14.019623104051586
80,-20.029732378639086
81,-3.7657663998861484
2,1, 1, 1, 0,20, 0.00,60.00,Tuesday
7,-1.5125000000000002
8,10.0
9,10.0
49,0.0
76,-3.731686185466192
77,-4.784862595820895
78,-3.704243017981781
79,22.56608976054325
80,18.15879654486561
81,-3.6767998504973693
2,1, 1, 1, 0,21, 0.00,60.00,Tuesday
7,-1.4749999999999999
8,10.0
9,10.0
49,0.0
76,-3.6883319938519654
77,-4.7678604123308865
78,-3.7044672498012186
79,-8.08426809399263
80,1.6791699358517205
81,-3.7206025057504712
2,1, 1, 1, 0,22, 0.00,60.00,Tuesday
7,-1.3249999999999997
8,10.0
9,10.0
49,0.0
76,-3.7109658850113756
77,-4.775622277929249
78,-3.693433035826656
79,13.570723395363885
80,3.562723855223929
81,-3.6759001866419365
2,1, 1, 1, 0,23, 0.00,60.00,Tuesday
7,-1.4749999999999999
8,7.5
9,7.5
49,0.0
76,-3.6698471389396325
77,-4.7549517912053645
78,-3.678110381159203
79,-1.2536993911260117
80,6.690864434977352
81,-3.686373623378774
2,1, 1, 1, 0,24, 0.00,60.00,Tuesday
7,-1.7
8,4.125
9,4.125
49,0.0
76,-3.709761447264482
77,-4.789532982992824
78,-3.731260732598927
79,-19.989261666086364
80,-20.72856038694943
81,-3.7527600179333724
3,1, 1, 1, 0,Tuesday
10,0.0,0.0, 1,15,0.0, 1,15
11,3.000000,3.0, 1,15,3.0, 1,15
53,-3.827821661888239,-5.8096267490918585, 8,15,-1.59975785229643,12,30
54,-0.4414098303328393,-13.291545613585374, 1,60,23.859784830695055,11,30
55,0.9606260091209791,0.17089824463692957,21,60,1.6079707485599228,11,45
56,7.05947127390493,1.4709405452636934,21,60,13.078861802722251,11,45
57,-3.9960311172845615,-5.809633786739125, 8,15,-2.696441095419524,11,30
58,-2.902460765148009,-13.288871034461412, 1,60,15.545397981833013, 9,60
59,0.8598519371320409,0.22074404396567546,19,45,1.5035186172433588, 9,45
60,6.609812156360921,1.5252553445696178,21,60,10.667551155189798,12,60
61,-4.182813801063692,-5.81110565272098, 8,15,-2.903649583244819,15,15
62,-5.5122628494808295,-13.291607210902697, 1,60,1.5291411012842442,14,30
63,0.7459523919440899,0.22074396280128933,19,45,1.2424654357442073, 2,15
64,6.626190031869104,1.5251939513179695,21,60,10.844632675021343,10,60
65,-4.151154941041418,-5.8096267490918585, 8,15,-2.5883913188561922,15,30
66,-5.0832610969774725,-13.291545613585276, 1,60,5.4646607621034065,15,30
67,0.7824580486869622,0.17070664589843162,21,60,1.242452959607921, 2,15
68,7.124270121918014,1.4709062112723914,21,60,13.542473829323363,10,60
69,-4.092780630427185,-4.808727968066356, 8,45,-3.7152730908691014,23,30
70,-4.092763006947631,-4.808727968066356, 8,60,-3.7152730908691014,23,45
71,0.7219215784721555,0.12400379135149593,20,60,1.3265497590997557, 3,30
72,-4.118990848768162,-5.564046306793748, 8,15,-3.0638507729030784,15,15
73,-5.8290715765407635,-15.661862385461607, 1,60,6.9941374442163955,12,30
74,0.6732113084531358,0.1,21,30,1.2101009840219368, 2,15
75,8.029436740745316,1.259889473678539,21,60,15.091880827591096,10,60
2,2, 1, 2, 0, 1, 0.00,60.00,Wednesday
7,-3.0749999999999997
8,2.375
9,2.375
49,0.0
76,-3.8053883578522925
77,-4.87017925879973
78,-3.860326114771152
79,-63.739501179940625
80,-54.8118039087381
81,-3.9152638716900103
2,2, 1, 2, 0, 2, 0.00,60.00,Wednesday
7,-3.2124999999999995
8,3.25
9,2.625
49,0.0
76,-3.938968704034104
77,-4.955871948183753
78,-3.9503992183987826
79,-13.23349967272754
80,-26.989996096303237
81,-3.9618297327634617
2,2, 1, 2, 0, 3, 0.00,60.00,Wednesday
7,-3.1125
8,2.75
9,2.375
49,0.0
76,-3.9473306151243506
77,-4.965868413245848
78,-3.9650720969767574
79,-12.773495729145491
80,-6.703015220734629
81,-3.9828135788291648
2,2, 1, 2, 0, 4, 0.00,60.00,Wednesday
7,-2.9875
8,5.75
9,4.5
49,0.0
76,-3.988998484040437
77,-4.995904767790794
78,-4.000252466570961
79,-8.936091031169111
80,-12.649466030962806
81,-4.011506449101486
2,2, 1, 2, 0, 5, 0.00,60.00,Wednesday
7,-1.7374999999999998
8,9.25
9,7.25
49,0.0
76,-3.9543273645680435
77,-4.9534001262761596
78,-3.909406990875319
79,39.88957952090362
80,32.31412984791608
81,-3.8644866171825942
2,2, 1, 2, 0, 6, 0.00,60.00,Wednesday
7,-1.1
8,10.0
9,8.0
49,0.0
76,-3.839062902409445
77,-4.871689493655725
78,-3.8058529106465393
79,34.376510828803646
80,39.311279015047475
81,-3.7726429188836335
2,2, 1, 2, 0, 7, 0.00,60.00,Wednesday
7,-0.7875000000000001
8,10.0
9,9.25
49,0.0
76,-3.7616235897152444
77,-4.814174265580299
78,-3.733788109732564
79,31.391032118453403
80,29.450127523743443
81,-3.705952629749883
2,2, 1, 2, 0, 8, 0.00,60.00,Wednesday
7,-0.6
8,10.0
9,10.0
49,0.0
76,-3.6658620621682454
77,-4.741752897354266
78,-3.6295880256269983
79,45.446501391348704
80,42.32271534904907
81,-3.5933139890857504
2,2, 1, 2, 0, 9, 0.00,60.00,Wednesday
7,-0.225
8,10.0
9,10.0
49,0.0
76,-3.4814705106980313
77,-4.59481580296719
78,-3.410825777509457
79,100.39250173599169
80,91.54876178924327
81,-3.3401810443208824
2,2, 1, 2, 0,10, 0.00,60.00,Wednesday
7,0.375
8,10.0
9,10.0
49,0.0
76,-3.1401694220503202
77,-4.340578976778828
78,-3.0617939906859792
79,140.10078149072893
80,141.8579511194593
81,-2.9834185593216374
2,2, 1, 2, 0,11, 0.00,60.00,Wednesday
7,1.2874999999999999
8,10.0
9,10.0
49,0.0
76,-2.8127030968798232
77,-4.109090967002923
78,-2.75519741144278
79,118.20373297974334
80,116.35225685257961
81,-2.697691726005738
2,2, 1, 2, 0,12, 0.00,60.00,Wednesday
7,1.7
8,10.0
9,10.0
49,0.0
76,-2.453879604535267
77,-3.8474659961040643
78,-2.385704364961378
79,150.0107185977778
80,147.59823573469308
81,-2.3175291253874897
2,2, 1, 2, 0,13, 0.00,60.00,Wednesday
7,1.7
8,10.0
9,10.0
49,0.0
76,-2.0220792024289946
77,-3.5383155974644307
78,-1.9505041115429458
79,172.95886641210132
80,171.13752757622728
81,-1.878929020656897
2,2, 1, 2, 0,14, 0.00,60.00,Wednesday
7,0.6375
8,10.0
9,10.0
49,0.0
76,-1.7640539422877553
77,-3.3913488702276586
78,-1.8095461071986896
79,-12.544254494114156
80,19.92969814460547
81,-1.8550382721096232
2,2, 1, 2, 0,15, 0.00,60.00,Wednesday
7,-0.375
8,10.0
9,10.0
49,0.0
76,-1.9046006119863623
77,-3.502220007046855
78,-1.970123743215117
79,-58.81365438222082
80,-63.13645403121049
81,-2.0356468744438714
2,2, 1, 2, 0,16, 0.00,60.00,Wednesday
7,0.15
8,10.0
9,10.0
49,0.0
76,-2.066317933511887
77,-3.621578311686153
78,-2.128655277137011
79,-54.654569676697776
80,-58.12111634587109
81,-2.1909926207621346
2,2, 1, 2, 0,17, 0.00,60.00,Wednesday
7,0.6
8,10.0
9,10.0
49,0.0
76,-2.1810553707098004
77,-3.7005673677548963
78,-2.2254719424664033
79,-34.82274347715606
80,-36.425825104736674
81,-2.2698885142230054
2,2, 1, 2, 0,18, 0.00,60.00,Wednesday
7,-0.15
8,10.0
9,10.0
49,0.0
76,-2.2583956402604457
77,-3.7560967049920104
78,-2.3009342778091795
79,-30.811399805281674
80,-28.172990315391843
81,-2.3434729153579132
2,2, 1, 2, 0,19, 0.00,60.00,Wednesday
7,0.15
8,10.0
9,10.0
49,0.0
76,-2.316833126491376
77,-3.791081172040718
78,-2.3209456512589828
79,0.6251295372619001
80,-7.7165820436143875
81,-2.325058176026589
2,2, 1, 2, 0,20, 0.00,60.00,Wednesday
7,0.9125000000000001
8,10.0
9,10.0
49,0.0
76,-2.2675246645161473
77,-3.75107227939814
78,-2.2493307415846644
79,27.91866589099515
80,27.245674864315966
81,-2.2311368186531815
2,2, 1, 2, 0,21, 0.00,60.00,Wednesday
7,1.4749999999999999
8,10.0
9,10.0
49,0.0
76,-2.181777286958915
77,-3.691487581199777
78,-2.158447360835061
79,36.495392121052056
80,35.22334524140503
81,-2.1351174347112076
2,2, 1, 2, 0,22, 0.00,60.00,Wednesday
7,2.0125
8,10.0
9,10.0
49,0.0
76,-2.0801662607411373
77,-3.6213305688899213
78,-2.059988526582576
79,37.20348908000393
80,37.79066292640771
81,-2.0398107924240145
2,2, 1, 2, 0,23, 0.00,60.00,Wednesday
7,0.825
8,10.0
9,10.0
49,0.0
76,-2.0554519361852774
77,-3.6275687269786947
78,-2.108757772402678
79,-37.37853045420357
80,-22.112866472311858
81,-2.1620636086200786
2,2, 1, 2, 0,24, 0.00,60.00,Wednesday
7,0.0
8,10.0
9,10.0
49,0.0