Program Version,EnergyPlus, Version 25.1.0-68a4a7c774, YMD=2025.08.28 16:04
1,5,Environment Title[],Latitude[deg],Longitude[deg],Time Zone[],Elevation[m]
2,8,Day of Simulation[],Month[],Day of Month[],DST Indicator[1=yes 0=no],Hour[],StartMinute[],EndMinute[],DayType
3,5,Cumulative Day of Simulation[],Month[],Day of Month[],DST Indicator[1=yes 0=no],DayType  ! When Daily Report Variables Requested
4,2,Cumulative Days of Simulation[],Month[]  ! When Monthly Report Variables Requested
5,1,Cumulative Days of Simulation[] ! When Run Period Report Variables Requested
6,1,Calendar Year of Simulation[] ! When Annual Report Variables Requested
7,1,Environment,Site Outdoor Air Drybulb Temperature [C] !Hourly
8,1,Environment,Site Total Sky Cover [] !Hourly
9,1,Environment,Site Opaque Sky Cover [] !Hourly
10,7,Environment,Site Daylight Saving Time Status [] !Daily [Value,Min,Hour,Minute,Max,Hour,Minute]
11,7,Environment,Site Day Type Index [] !Daily [Value,Min,Hour,Minute,Max,Hour,Minute]
49,1,ZONE ONE,Zone Total Internal Latent Gain Energy [J] !Hourly
50,9,TEST 352A,Other Equipment Total Heating Energy [J] !Monthly [Value,Min,Day,Hour,Minute,Max,Day,Hour,Minute]
51,9,TEST 352 MINUS,Other Equipment Total Heating Energy [J] !Monthly [Value,Min,Day,Hour,Minute,Max,Day,Hour,Minute]
52,9,ZONE ONE,Zone Other Equipment Total Heating Energy [J] !Monthly [Value,Min,Day,Hour,Minute,Max,Day,Hour,Minute]
53,7,ZN001:WALL001,Surface Inside Face Temperature [C] !Daily [Value,Min,Hour,Minute,Max,Hour,Minute]
54,7,ZN001:WALL001,Surface Outside Face Temperature [C] !Daily [Value,Min,Hour,Minute,Max,Hour,Minute]
55,7,ZN001:WALL001,Surface Inside Face Convection Heat Transfer Coefficient [W/m2-K] !Daily [Value,Min,Hour,Minute,Max,Hour,Minute]
56,7,ZN001:WALL001,Surface Outside Face Convection Heat Transfer Coefficient [W/m2-K] !Daily [Value,Min,Hour,Minute,Max,Hour,Minute]
57,7,ZN001:WALL002,Surface Inside Face Temperature [C] !Daily [Value,Min,Hour,Minute,Max,Hour,Minute]
58,7,ZN001:WALL002,Surface Outside Face Temperature [C] !Daily [Value,Min,Hour,Minute,Max,Hour,Minute]
59,7,ZN001:WALL002,Surface Inside Face Convection Heat Transfer Coefficient [W/m2-K] !Daily [Value,Min,Hour,Minute,Max,Hour,Minute]
60,7,ZN001:WALL002,Surface Outside Face Convection Heat Transfer Coefficient [W/m2-K] !Daily [Value,Min,Hour,Minute,Max,Hour,Minute]
61,7,ZN001:WALL003,Surface Inside Face Temperature [C] !Daily [Value,Min,Hour,Minute,Max,Hour,Minute]
62,7,ZN001:WALL003,Surface Outside Face Temperature [C] !Daily [Value,Min,Hour,Minute,Max,Hour,Minute]
63,7,ZN001:WALL003,Surface Inside Face Convection Heat Transfer Coefficient [W/m2-K] !Daily [Value,Min,Hour,Minute,Max,Hour,Minute]
64,7,ZN001:WALL003,Surface Outside Face Convection Heat Transfer Coefficient [W/m2-K] !Daily [Value,Min,Hour,Minute,Max,Hour,Minute]
65,7,ZN001:WALL004,Surface Inside Face Temperature [C] !Daily [Value,Min,Hour,Minute,Max,Hour,Minute]
66,7,ZN001:WALL004,Surface Outside Face Temperature [C] !Daily [Value,Min,Hour,Minute,Max,Hour,Minute]
67,7,ZN001:WALL004,Surface Inside Face Convection Heat Transfer Coefficient [W/m2-K] !Daily [Value,Min,Hour,Minute,Max,Hour,Minute]
68,7,ZN001:WALL004,Surface Outside Face Convection Heat Transfer Coefficient [W/m2-K] !Daily [Value,Min,Hour,Minute,Max,Hour,Minute]
69,7,ZN001:FLR001,Surface Inside Face Temperature [C] !Daily [Value,Min,Hour,Minute,Max,Hour,Minute]
70,7,ZN001:FLR001,Surface Outside Face Temperature [C] !Daily [Value,Min,Hour,Minute,Max,Hour,Minute]
71,7,ZN001:FLR001,Surface Inside Face Convection Heat Transfer Coefficient [W/m2-K] !Daily [Value,Min,Hour,Minute,Max,Hour,Minute]
72,7,ZN001:ROOF001,Surface Inside Face Temperature [C] !Daily [Value,Min,Hour,Minute,Max,Hour,Minute]
73,7,ZN001:ROOF001,Surface Outside Face Temperature [C] !Daily [Value,Min,Hour,Minute,Max,Hour,Minute]
74,7,ZN001:ROOF001,Surface Inside Face Convection Heat Transfer Coefficient [W/m2-K] !Daily [Value,Min,Hour,Minute,Max,Hour,Minute]
75,7,ZN001:ROOF001,Surface Outside Face Convection Heat Transfer Coefficient [W/m2-K] !Daily [Value,Min,Hour,Minute,Max,Hour,Minute]
76,1,ZONE ONE,Zone Mean Air Temperature [C] !Hourly
77,1,ZONE ONE,Zone Wetbulb Globe Temperature [C] !Hourly
78,1,ZONE ONE,Zone Operative Temperature [C] !Hourly
79,1,ZONE ONE,Zone Air Heat Balance Surface Convection Rate [W] !Hourly
80,1,ZONE ONE,Zone Air Heat Balance Air Energy Storage Rate [W] !Hourly
81,1,ZONE ONE,Zone Mean Radiant Temperature [C] !Hourly
17,11,Electricity:Facility [J] !Annual [Value,Min,Month,Day,Hour,Minute,Max,Month,Day,Hour,Minute]
End of Data Dictionary
1,DENVER CENTENNIAL  GOLDEN   N ANN HTG 99% CONDNS DB,  41.98, -87.92,  -6.00, 201.00
2,1,12,21, 0, 1, 0.00,60.00,WinterDesignDay
7,-15.5
8,6.75
9,6.75
49,0.0
76,-18.298179528794886
77,-18.29778609217846
78,-18.296880425738628
79,-0.03477386637620272
80,-0.03483648326348826
81,-18.295581322682366
2,1,12,21, 0, 2, 0.00,60.00,WinterDesignDay
7,-15.5
8,9.625
9,9.625
49,0.0
76,-18.298265629704467
77,-18.297873525151516
78,-18.296967417743737
79,-0.03427714004576554
80,-0.03433886364011297
81,-18.295669205783007
2,1,12,21, 0, 3, 0.00,60.00,WinterDesignDay
7,-15.5
8,10.0
9,10.0
49,0.0
76,-18.298350500667624
77,-18.297958107662144
78,-18.297053166540618
79,-0.033787499700036694
80,-0.033848342705477284
81,-18.295755832413608
2,1,12,21, 0, 4, 0.00,60.00,WinterDesignDay
7,-15.5
8,10.0
9,10.0
49,0.0
76,-18.298434159231206
77,-18.29804218504553
78,-18.29713768988178
79,-0.0333048445696682
80,-0.03336481951521563
81,-18.29584122053236
2,1,12,21, 0, 5, 0.00,60.00,WinterDesignDay
7,-15.5
8,10.0
9,10.0
49,0.0
76,-18.29851662269247
77,-18.298123451200475
78,-18.297221005266707
79,-0.03282907531010881
80,-0.03288819453979145
81,-18.29592538784094
2,1,12,21, 0, 6, 0.00,60.00,WinterDesignDay
7,-15.5
8,10.0
9,10.0
49,0.0
76,-18.298597908102668
77,-18.298204193971817
78,-18.29730312994544
79,-0.032360093972851445
80,-0.032418369664352444
81,-18.296008351788217
2,1,12,21, 0, 7, 0.00,60.00,WinterDesignDay
7,-15.5
8,10.0
9,10.0
49,0.0
76,-18.29867803227044
77,-18.298287199893796
78,-18.29738408092213
79,-0.031897803991112195
80,-0.03195524814957448
81,-18.296090129573816
2,1,12,21, 0, 8, 0.00,60.00,WinterDesignDay
7,-15.5
8,8.75
9,8.75
49,0.0
76,-18.298757011765293
77,-18.298364628445253
78,-18.297463874958495
79,-0.03144211016673326
80,-0.031498734624698765
81,-18.296170738151698
2,1,12,21, 0, 9, 0.00,60.00,WinterDesignDay
7,-15.5
8,3.0
9,3.0
49,0.0
76,-18.298834862920945
77,-18.29844394028876
78,-18.297542528577303
79,-0.030992918648252932
80,-0.031048735060470508
81,-18.29625019423366
2,1,12,21, 0,10, 0.00,60.00,WinterDesignDay
7,-15.5
8,1.25
9,0.0
49,0.0
76,-18.29891160183869
77,-18.298520689620627
78,-18.29762005806574
79,-0.03055013690983399
80,-0.030605156783275
81,-18.296328514292796
2,1,12,21, 0,11, 0.00,60.00,WinterDesignDay
7,-15.5
8,0.75
9,0.0
49,0.0
76,-18.298987244390673
77,-18.298597135271688
78,-18.29769647947877
79,-0.03011367372329321
80,-0.030167908394209735
81,-18.296405714566866
2,1,12,21, 0,12, 0.00,60.00,WinterDesignDay
7,-15.5
8,3.75
9,1.25
49,0.0
76,-18.299061806223122
77,-18.29867044319542
78,-18.29777180864241
79,-0.029683439161216185
80,-0.029736899811948547
81,-18.296481811061696
2,1,12,21, 0,13, 0.00,60.00,WinterDesignDay
7,-15.5
8,8.5
9,5.75
49,0.0
76,-18.299135302759538
77,-18.29874381803326
78,-18.297846061157
79,-0.02925934456434609
80,-0.02931204220504295
81,-18.296556819554464
2,1,12,21, 0,14, 0.00,60.00,WinterDesignDay
7,-15.5
8,10.0
9,8.625
49,0.0
76,-18.29920774920384
77,-18.29881851514607
78,-18.2979192524004
79,-0.0288413025330998
80,-0.028893248025466143
81,-18.296630755596965
2,1,12,21, 0,15, 0.00,60.00,WinterDesignDay
7,-15.5
8,9.375
9,9.0
49,0.0
76,-18.299279160543545
77,-18.29888864269273
78,-18.29799139753119
79,-0.0284292268892683
80,-0.028480430954224548
81,-18.296703634518835
2,1,12,21, 0,16, 0.00,60.00,WinterDesignDay
7,-15.5
8,9.625
9,9.625
49,0.0
76,-18.299349551552716
77,-18.298958294690422
78,-18.298062511491704
79,-0.028023032688012428
80,-0.028073505875853718
81,-18.296775471430692
2,1,12,21, 0,17, 0.00,60.00,WinterDesignDay
7,-15.5
8,10.0
9,10.0
49,0.0
76,-18.29941893679504
77,-18.299031674033536
78,-18.298132609011173
79,-0.027622636187588423
80,-0.027672388906556857
81,-18.296846281227307
2,1,12,21, 0,18, 0.00,60.00,WinterDesignDay
7,-15.5
8,10.0
9,10.0
49,0.0
76,-18.29948733062686
77,-18.29909626990245
78,-18.298201704608744
79,-0.027227954816037236
80,-0.027276997340445128
81,-18.29691607859063
2,1,12,21, 0,19, 0.00,60.00,WinterDesignDay
7,-15.5
8,10.0
9,10.0
49,0.0
76,-18.29955474719999
77,-18.299166855808217
78,-18.29826981259644
79,-0.026838907195516182
80,-0.026887249628056435
81,-18.29698487799289
2,1,12,21, 0,20, 0.00,60.00,WinterDesignDay
7,-15.5
8,10.0
9,10.0
49,0.0
76,-18.299621200464735
77,-18.299232532716818
78,-18.298336947082124
79,-0.026455413075923584
80,-0.02650306539926809
81,-18.29705269369951
2,1,12,21, 0,21, 0.00,60.00,WinterDesignDay
7,-15.5
8,10.0
9,10.0
49,0.0
76,-18.299686704172643
77,-18.299295472826664
78,-18.29840312197239
79,-0.026077393364918766
80,-0.026124365398866478
81,-18.29711953977214
2,1,12,21, 0,22, 0.00,60.00,WinterDesignDay
7,-15.5
8,10.0
9,10.0
49,0.0
76,-18.299751271879394
77,-18.299362579978958
78,-18.298468350975437
79,-0.025704770082616957
80,-0.025751071515172207
81,-18.297185430071487
2,1,12,21, 0,23, 0.00,60.00,WinterDesignDay
7,-15.5
8,7.5
9,7.5
49,0.0
76,-18.299814916947568
77,-18.29942943614122
78,-18.29853264760391
79,-0.02533746634487466
80,-0.025383106743649034
81,-18.297250378260248
2,1,12,21, 0,24, 0.00,60.00,WinterDesignDay
7,-15.5
8,4.125
9,4.125
49,0.0
76,-18.299877652549355
77,-18.299491342278465
78,-18.298596025177638
79,-0.024975406372725217
80,-0.025020395149004032
81,-18.297314397805916
3,1,12,21, 0,WinterDesignDay
10,0.0,0.0, 1,15,0.0, 1,15
11,10.000000,10.0, 1,15,10.0, 1,15
53,-18.2307060149637,-18.23149191660518,24,60,-18.229826363590938, 1,15
54,-17.416011205640846,-17.416036845526225,24,60,-17.41598250726295, 1,15
55,0.5355310810229953,0.5354087184564565, 1,15,0.5356405211585643,24,60
56,7.416476961478296,7.416475961403828,24,60,7.416478080867245, 1,15
57,-18.2307060149637,-18.23149191660518,24,60,-18.229826363590938, 1,15
58,-17.416011205640846,-17.416036845526225,24,60,-17.41598250726295, 1,15
59,0.5355310810229953,0.5354087184564565, 1,15,0.5356405211585643,24,60
60,7.416476961478296,7.416475961403828,24,60,7.416478080867245, 1,15
61,-18.234367253137435,-18.235153106154247,24,60,-18.233487656055647, 1,15
62,-17.462445349821028,-17.462471586015813,24,60,-17.4624159840032, 1,15
63,0.5257953555361904,0.5256682708762475, 1,15,0.5259090173473308,24,60
64,7.151480699352272,7.151479846313714,24,60,7.151481654165305, 1,15
65,-18.234367253137435,-18.235153106154247,24,60,-18.233487656055647, 1,15
66,-17.462445349821028,-17.462471586015813,24,60,-17.4624159840032, 1,15
67,0.5257953555361906,0.5256682708762475, 1,15,0.5259090173473308,24,60
68,7.151480699352272,7.151479846313714,24,60,7.151481654165305, 1,15
69,-18.30280814661471,-18.303742672723473,24,60,-18.301762105934525, 1,15
70,-18.302787258822544,-18.30372515614136,24,60,-18.30173744467584, 1,15
71,0.11786535182590922,0.11659105865579121, 1,15,0.11898773696304232,24,60
72,-18.3669271967169,-18.367752566415994,24,60,-18.366003366875308, 1,15
73,-20.307068575830602,-20.307080923243376,24,60,-20.30705475545201, 1,15
74,0.6199827400502445,0.6199757090294092,24,60,0.6199904072373641, 1,15
75,8.618847436165423,8.618847112252446,24,60,8.618847798719754, 1,15
4,1,12
50,30412800.0,9999.0, 0, 0, 0,316800.0,21, 1,15
51,-30412800.0,-316800.0,21, 1,15,-9999.0, 0, 0, 0
52,0.0,0.0,21, 1,15,0.0,21, 1,15
1,DENVER CENTENNIAL  GOLDEN   N ANN CLG 1% CONDNS DB=>MWB,  41.98, -87.92,  -6.00, 201.00
2,1, 7,21, 0, 1, 0.00,60.00,SummerDesignDay
7,18.966
8,6.75
9,6.75
49,0.0
76,29.27876438164394
77,18.95099913896379
78,29.20566352584631
79,-89.75064637079288
80,-89.6574989396828
81,29.132562670048678
2,1, 7,21, 0, 2, 0.00,60.00,SummerDesignDay
7,18.244
8,9.625
9,9.625
49,0.0
76,29.01536465886051
77,18.803090886903348
78,28.942369086618136
79,-87.8659691652722
80,-88.30317681089541
81,28.86937351437576
2,1, 7,21, 0, 3, 0.00,60.00,SummerDesignDay
7,17.731
8,10.0
9,10.0
49,0.0
76,28.75865984973272
77,18.65874069748338
78,28.685879421483214
79,-86.08905658647629
80,-86.30340699970634
81,28.613098993233717
2,1, 7,21, 0, 4, 0.00,60.00,SummerDesignDay
7,17.275000000000002
8,10.0
9,10.0
49,0.0
76,28.50446909642409
77,18.51532126938723
78,28.43106314671572
79,-86.49822316446362
80,-86.38686957714688
81,28.35765719700735
2,1, 7,21, 0, 5, 0.00,60.00,SummerDesignDay
7,16.913999999999998
8,10.0
9,10.0
49,0.0
76,28.25369511211318
77,18.37519363068246
78,28.18497072110286
79,-78.0183044313552
80,-81.5706931689547
81,28.116246330092537
2,1, 7,21, 0, 6, 0.00,60.00,SummerDesignDay
7,16.990000000000002
8,10.0
9,10.0
49,0.0
76,28.228826330417135
77,18.38903847060899
78,28.25307382519476
79,71.85928459306163
80,51.35713847309066
81,28.277321319972383
2,1, 7,21, 0, 7, 0.00,60.00,SummerDesignDay
7,17.769
8,10.0
9,10.0
49,0.0
76,28.497213563497922
77,18.548319475627643
78,28.547445447698305
79,91.98672253213132
80,94.4684020170736
81,28.59767733189869
2,1, 7,21, 0, 8, 0.00,60.00,SummerDesignDay
7,19.783
8,8.75
9,8.75
49,0.0
76,28.779407736582876
77,18.712650908858087
78,28.847409718368446
79,110.87116766316038
80,104.21665667574057
81,28.915411700154017
2,1, 7,21, 0, 9, 0.00,60.00,SummerDesignDay
7,22.557
8,3.0
9,3.0
49,0.0
76,29.179384182104457
77,18.943914721761175
78,29.268690873284008
79,153.07806723880594
80,150.60388375406308
81,29.35799756446356
2,1, 7,21, 0,10, 0.00,60.00,SummerDesignDay
7,25.255000000000003
8,1.25
9,0.0
49,0.0
76,29.629145828162695
77,19.19476363716153
78,29.713932766697106
79,146.6716487881607
80,148.5770886042499
81,29.79871970523152
2,1, 7,21, 0,11, 0.00,60.00,SummerDesignDay
7,27.649
8,0.75
9,0.0
49,0.0
76,30.03725891379202
77,19.41974369313517
78,30.11115687202103
79,127.30748496368147
80,130.14599223491666
81,30.18505483025004
2,1, 7,21, 0,12, 0.00,60.00,SummerDesignDay
7,29.454
8,3.75
9,1.25
49,0.0
76,30.3709563894217
77,19.600885418477894
78,30.427988849145475
79,96.91539467594328
80,100.80596193895234
81,30.48502130886925
2,1, 7,21, 0,13, 0.00,60.00,SummerDesignDay
7,30.784
8,8.5
9,5.75
49,0.0
76,30.68721594462413
77,19.782252876702984
78,30.761806361050063
79,127.34090741350366
80,120.29965997029288
81,30.836396777475997
2,1, 7,21, 0,14, 0.00,60.00,SummerDesignDay
7,31.715
8,10.0
9,8.625
49,0.0
76,31.081943543187773
77,19.997748863684443
78,31.14376308716675
79,128.68225031857455
80,131.43541033030098
81,31.205582631145727
2,1, 7,21, 0,15, 0.00,60.00,SummerDesignDay
7,32.0
8,9.375
9,9.0
49,0.0
76,31.41653157860102
77,20.173385381511
78,31.445448765904445
79,92.71471098428246
80,98.10401761695356
81,31.47436595320787
2,1, 7,21, 0,16, 0.00,60.00,SummerDesignDay
7,31.43
8,9.625
9,9.625
49,0.0
76,31.618795721304064
77,20.271642201933382
78,31.602031982597357
79,40.66527736129625
80,47.93010675628653
81,31.585268243890653
2,1, 7,21, 0,17, 0.00,60.00,SummerDesignDay
7,30.328
8,10.0
9,10.0
49,0.0
76,31.67391799033741
77,20.288561803190298
78,31.611928177041122
79,1.2508670449605908
80,4.67092981716371
81,31.549938363744836
2,1, 7,21, 0,18, 0.00,60.00,SummerDesignDay
7,28.922
8,10.0
9,10.0
49,0.0
76,31.604421279861608
77,20.239195919212374
78,31.506015850046772
79,-59.954699950933026
80,-48.28094868896992
81,31.407610420231936
2,1, 7,21, 0,19, 0.00,60.00,SummerDesignDay
7,26.927
8,10.0
9,10.0
49,0.0
76,31.232111403484296
77,20.01642486069431
78,31.078606966574267
79,-201.63935356247936
80,-180.83610458304918
81,30.92510252966423
2,1, 7,21, 0,20, 0.00,60.00,SummerDesignDay
7,25.027
8,10.0
9,10.0
49,0.0
76,30.621338783561658
77,19.69564221859205
78,30.529435017713993
79,-154.6340698282785
80,-177.00878591121958
81,30.43753125186634
2,1, 7,21, 0,21, 0.00,60.00,SummerDesignDay
7,23.544999999999998
8,10.0
9,10.0
49,0.0
76,30.298109260205553
77,19.523373201489946
78,30.232137032616354
79,-86.70471111862025
80,-87.95889996630817
81,30.166164805027154
2,1, 7,21, 0,22, 0.00,60.00,SummerDesignDay
7,22.177
8,10.0
9,10.0
49,0.0
76,30.04962137429311
77,19.384384748116915
78,29.982603429979847
79,-84.38596451180106
80,-83.91760924941269
81,29.915585485666575
2,1, 7,21, 0,23, 0.00,60.00,SummerDesignDay
7,20.999000000000002
8,7.5
9,7.5
49,0.0
76,29.798254474206537
77,19.243451436335764
78,29.72979001670802
79,-84.76879950103981
80,-84.90865762821528
81,29.66132555920951
2,1, 7,21, 0,24, 0.00,60.00,SummerDesignDay
7,19.935000000000002
8,4.125
9,4.125
49,0.0
76,29.5435457268478
77,19.10003416679337
78,29.472326646599655
79,-87.84074013920693
80,-87.31651034334615
81,29.401107566351513
3,1, 7,21, 0,SummerDesignDay
10,0.0,0.0, 1,15,0.0, 1,15
11,9.000000,9.0, 1,15,9.0, 1,15
53,29.80131374587988,27.515649857923847, 5,60,31.995084726428292,15,45
54,28.06267717387075,15.55617520272721, 5,45,48.374383971172676,13,30
55,1.0334429535015774,0.41374910561781836, 9,15,1.2718234745707233,13,45
56,11.656048309541935,11.426183507577274,14,45,12.28923846477384,19,45
57,29.915261760866084,27.538476358073897, 5,45,31.685784100516386,16,30
58,30.396229944436914,15.556735917968087, 5,45,52.76351552617339, 9,15
59,1.0327303606768674,0.10958896800725812,17,15,1.402043896861311, 9,30
60,11.646260525383108,11.426475273331434,11,60,12.289238464775373,19,45
61,29.699406368323825,27.530612513530553, 5,45,31.70788489327928,17,60
62,25.839463911431007,15.389328466308266, 5,45,36.12762875118305,18,30
63,0.8483619093424798,0.19993146822304736, 9,60,1.1569096934625305, 5,60
64,9.7587322848512,9.651439958693441, 7,30,10.08082259067733, 6,15
65,29.928610017438057,27.50877918656095, 5,60,33.06422708798703,16,60
66,30.849227482569887,15.389002642194086, 5,45,64.3849218118218,16,60
67,1.0558572252081184,0.1999314683057767, 9,60,1.4703294595284722,16,60
68,9.796934929856162,9.648702934396686,13,45,10.148229781446146, 6,45
69,29.881582624100655,28.73666309271304, 7,45,31.041483236022135,19,15
70,29.88156623900969,28.73666309271304, 7,60,31.041483236022135,19,30
71,0.9346101322460885,0.17901402776369577,20,15,1.3612747108479488, 5,60
72,29.95132274855764,27.83516121781061, 5,60,31.93666493406957,15,60
73,32.31565408897936,12.97304680045515, 5,45,60.636469419341076,13,30
74,0.8053272230900218,0.2040009135915798, 7,45,1.1479828461081414,20,15
75,13.380181521076691,13.087110631359462,17,30,13.86854539156584, 6,45
4,1, 7
50,30412800.0,316800.0,21, 1,15,316800.0,21, 1,15
51,-30412800.0,-316800.0,21, 1,15,-316800.0,21, 1,15
52,0.0,0.0,21, 1,15,0.0,21, 1,15
1,RUN PERIOD 1,  41.98, -87.92,  -6.00, 201.00
2,1, 1, 1, 0, 1, 0.00,60.00,Tuesday
7,-8.2625
8,6.75
9,6.75
49,0.0
76,-4.048904735451613
77,-5.066717613845265
78,-4.189867386664342
79,-209.27471569655756
80,-171.98607299886044
81,-4.330830037877071
2,1, 1, 1, 0, 2, 0.00,60.00,Tuesday
7,-11.8875
8,9.625
9,9.625
49,0.0
76,-4.582840734923593
77,-5.437392315352108
78,-4.6617314018985425
79,-122.88780559626724
80,-156.16656712625104
81,-4.740622068873491
2,1, 1, 1, 0, 3, 0.00,60.00,Tuesday
7,-11.325
8,10.0
9,10.0
49,0.0
76,-4.775548223836916
77,-5.573927180882572
78,-4.827722334627867
79,-49.782939545574976
80,-50.92659002077055
81,-4.879896445418818
2,1, 1, 1, 0, 4, 0.00,60.00,Tuesday
7,-11.1
8,10.0
9,10.0
49,0.0
76,-4.8933324469974115
77,-5.662227068968292
78,-4.942614583224343
79,-44.2897614735617
80,-44.13669649556549
81,-4.991896719451275
2,1, 1, 1, 0, 5, 0.00,60.00,Tuesday
7,-10.7875
8,10.0
9,10.0
49,0.0
76,-5.001441304884586
77,-5.741690116567369
78,-5.045847740741575
79,-37.07705306480517
80,-38.45479182374441
81,-5.090254176598565
2,1, 1, 1, 0, 6, 0.00,60.00,Tuesday
7,-10.6
8,10.0
9,10.0
49,0.0
76,-5.099672410223682
77,-5.815777159255315
78,-5.145652899997627
79,-40.920472535325146
80,-39.64076600965636
81,-5.191633389771571
2,1, 1, 1, 0, 7, 0.00,60.00,Tuesday
7,-10.6
8,10.0
9,10.0
49,0.0
76,-5.208180666802235
77,-5.896862096194157
78,-5.253081922068268
79,-40.662759970450296
80,-41.212145548690486
81,-5.2979831773343
2,1, 1, 1, 0, 8, 0.00,60.00,Tuesday
7,-10.225
8,8.75
9,8.75
49,0.0
76,-5.243538336319494
77,-5.900833029735793
78,-5.213161971415354
79,61.46374089867666
80,32.62860608840904
81,-5.1827856065112154
2,1, 1, 1, 0, 9, 0.00,60.00,Tuesday
7,-9.3125
8,3.0
9,3.0
49,0.0
76,-4.774812510974899
77,-5.517314603621167
78,-4.635929776145511
79,259.1227383363499
80,248.49452691813556
81,-4.497047041316122
2,1, 1, 1, 0,10, 0.00,60.00,Tuesday
7,-7.525
8,1.25
9,0.0
49,0.0
76,-4.141849785018572
77,-5.071097539549713
78,-4.086771266758267
79,194.40275412613425
80,211.45192049533665
81,-4.031692748497963
2,1, 1, 1, 0,11, 0.00,60.00,Tuesday
7,-5.6375
8,0.75
9,0.0
49,0.0
76,-3.7302941142461505
77,-4.777599660233871
78,-3.7062815393293
79,132.4833852334427
80,136.11855910088352
81,-3.68226896441245
2,1, 1, 1, 0,12, 0.00,60.00,Tuesday
7,-3.9375
8,3.75
9,1.25
49,0.0
76,-3.47745747714374
77,-4.605972689297954
78,-3.4927697093373
79,49.426991168964754
80,63.64640467087085
81,-3.50808194153086
2,1, 1, 1, 0,13, 0.00,60.00,Tuesday
7,-2.6125
8,8.5
9,5.75
49,0.0
76,-3.4553874368957516
77,-4.596849842165849
78,-3.484132916073877
79,-7.517726618220003
80,-10.09751383312449
81,-3.5128783952520033
2,1, 1, 1, 0,14, 0.00,60.00,Tuesday
7,-1.5125000000000002
8,10.0
9,8.625
49,0.0
76,-3.425263973864544
77,-4.566231275834676
78,-3.4219572424120637
79,30.9825509214594
80,27.23057024396983
81,-3.4186505109595835
2,1, 1, 1, 0,15, 0.00,60.00,Tuesday
7,-1.1
8,9.375
9,9.0
49,0.0
76,-3.3356087955022717
77,-4.505089732635726
78,-3.3483164905355784
79,20.00710894778316
80,26.8867691717277
81,-3.361024185568885
2,1, 1, 1, 0,16, 0.00,60.00,Tuesday
7,-1.1
8,9.625
9,9.625
49,0.0
76,-3.372974777375369
77,-4.546745461741446
78,-3.4329361305631525
79,-44.378534103621256
80,-38.50392921726783
81,-3.492897483750936
2,1, 1, 1, 0,17, 0.00,60.00,Tuesday
7,-1.1
8,10.0
9,10.0
49,0.0
76,-3.5582366380249697
77,-4.692978641339758
78,-3.6509450400696273
79,-90.8367948036165
80,-87.41935608285922
81,-3.7436534421142853
2,1, 1, 1, 0,18, 0.00,60.00,Tuesday
7,-1.4749999999999999
8,10.0
9,10.0
49,0.0
76,-3.7582215013904605
77,-4.828735163711215
78,-3.811684396473348
79,-54.3942819401701
80,-59.80344228712931
81,-3.865147291556236
2,1, 1, 1, 0,19, 0.00,60.00,Tuesday
7,-2.0125
8,10.0
9,10.0
49,0.0
76,-3.848437950219035
77,-4.882233987443076
78,-3.858034439824345
79,-12.718279479454079
80,-18.374910042562725
81,-3.8676309294296543
2,1, 1, 1, 0,20, 0.00,60.00,Tuesday
7,-1.5125000000000002
8,10.0
9,10.0
49,0.0
76,-3.835877963764152
77,-4.862328689292461
78,-3.8100714361087733
79,20.99711632739953
80,17.058186588921657
81,-3.7842649084533946
2,1, 1, 1, 0,21, 0.00,60.00,Tuesday
7,-1.4749999999999999
8,10.0
9,10.0
49,0.0
76,-3.795690593763349
77,-4.846730928827132
78,-3.8104887976771056
79,-7.300317501066775
80,1.6640868909467583
81,-3.825287001590862
2,1, 1, 1, 0,22, 0.00,60.00,Tuesday
7,-1.3249999999999997
8,10.0
9,10.0
49,0.0
76,-3.8163694097397713
77,-4.853794552055528
78,-3.7999377999603023
79,12.520340483257435
80,3.3035379541182515
81,-3.783506190180833
2,1, 1, 1, 0,23, 0.00,60.00,Tuesday
7,-1.4749999999999999
8,7.5
9,7.5
49,0.0
76,-3.7778493285027372
77,-4.83427755136502
78,-3.784801634560681
79,-0.6123657500783359
80,6.622361147962245
81,-3.791753940618625
2,1, 1, 1, 0,24, 0.00,60.00,Tuesday
7,-1.7
8,4.125
9,4.125
49,0.0
76,-3.8134407651373796
77,-4.865588832982928
78,-3.83327514715867
79,-18.214665357804165
80,-18.827091986739514
81,-3.85310952917996
3,1, 1, 1, 0,Tuesday
10,0.0,0.0, 1,15,0.0, 1,15
11,3.000000,3.0, 1,15,3.0, 1,15
53,-3.931170440534275,-5.712494349454266, 8,15,-1.9661520729269784,12,30
54,-0.4337227116660685,-13.338202670772347, 1,60,23.941925755412175,11,30
55,0.9235890049642612,0.17827779285539563,21,60,1.5432781612987778,11,45
56,7.0589402159431,1.4705533929065817,21,60,13.079026865349494,11,45
57,-4.0774517202464,-5.712500134381095, 8,15,-2.9396905660351176,11,30
58,-2.9022051819238643,-13.335394940376203, 1,60,15.629438197180598, 9,60
59,0.827964324979893,0.13606507801023537,19,45,1.442630526008629, 9,45
60,6.609009601099902,1.5252248914199744,21,60,10.667097222119683,12,60
61,-4.2393642398043445,-5.713821931632253, 8,15,-3.0859182823439815,15,15
62,-5.523098485191802,-13.338261621125966, 1,60,1.545482183370929,14,30
63,0.7133926278801077,0.1360651987065724,19,45,1.1943000220256796, 2,15
64,6.625247401645659,1.5251729187993182,21,60,10.84569107753901,10,60
65,-4.211828078185772,-5.712494349454262, 8,15,-2.8118931899693056,15,30
66,-5.092155278860639,-13.338202670772311, 1,60,5.497855463850268,15,30
67,0.748079570967767,0.17840796407870915,21,60,1.1942882838893887, 2,15
68,7.123627497907319,1.4705260717211126,21,60,13.543926322505198,10,60
69,-4.166475023045542,-4.814838276345517, 8,45,-3.8220064134366423,23,30
70,-4.166457994552381,-4.814838276345517, 8,60,-3.8220064134366423,23,45
71,0.6971631700939969,0.14421165412198828,20,60,1.2822755413745688, 3,30
72,-4.192220116823083,-5.525310743228016, 8,15,-3.205997486760957,15,15
73,-5.830305373233081,-15.662604189750187, 1,60,6.992863384849896,12,30
74,0.6710029472499693,0.1186842287759743,21,30,1.2012499216510717, 2,15
75,8.029479964918004,1.260187990361521,21,60,15.09190948591452,10,60
2,2, 1, 2, 0, 1, 0.00,60.00,Wednesday
7,-3.0749999999999997
8,2.375
9,2.375
49,0.0
76,-3.9001563710313545
77,-4.939028791773988
78,-3.951113544785068
79,-57.777628130367624
80,-49.675205002981656
81,-4.002070718538782
2,2, 1, 2, 0, 2, 0.00,60.00,Wednesday
7,-3.2124999999999995
8,3.25
9,2.625
49,0.0
76,-4.022340625213205
77,-5.017347651454305
78,-4.032998365187851
79,-12.726391736685834
80,-25.155221315140253
81,-4.043656105162499
2,2, 1, 2, 0, 3, 0.00,60.00,Wednesday
7,-3.1125
8,2.75
9,2.375
49,0.0
76,-4.030751959613234
77,-5.027087178560492
78,-4.046741485429367
79,-11.494608154801615
80,-6.076657169865636
81,-4.0627310112455
2,2, 1, 2, 0, 4, 0.00,60.00,Wednesday
7,-2.9875
8,5.75
9,4.5
49,0.0
76,-4.068820466010876
77,-5.054717867651483
78,-4.079109388522475
79,-8.487478388702076
80,-11.783648838393036
81,-4.089398311034074
2,2, 1, 2, 0, 5, 0.00,60.00,Wednesday
7,-1.7374999999999998
8,9.25
9,7.25
49,0.0
76,-4.0379810303343335
77,-5.016197461189709
78,-3.9959955741042776
79,36.26661610399971
80,29.30834108087975
81,-3.9540101178742217
2,2, 1, 2, 0, 6, 0.00,60.00,Wednesday
7,-1.1
8,10.0
9,8.0
49,0.0
76,-3.932565572598673
77,-4.941294609789888
78,-3.9009576814335563
79,31.68552640372249
80,36.123303297377056
81,-3.8693497902684397
2,2, 1, 2, 0, 7, 0.00,60.00,Wednesday
7,-0.7875000000000001
8,10.0
9,9.25
49,0.0
76,-3.861104350760328
77,-4.8880047140813385
78,-3.834401317984703
79,28.878586013564146
80,27.138529834621856
81,-3.807698285209079
2,2, 1, 2, 0, 8, 0.00,60.00,Wednesday
7,-0.6
8,10.0
9,10.0
49,0.0
76,-3.77312322427942
77,-4.82131034380251
78,-3.738187574944732
79,41.698829584130586
80,38.856355739520325
81,-3.703251925610044
2,2, 1, 2, 0, 9, 0.00,60.00,Wednesday
7,-0.225
8,10.0
9,10.0
49,0.0
76,-3.6046142840675492
77,-4.686401690382023
78,-3.536913953199888
79,91.61194029863499
80,83.5763982483565
81,-3.4692136223322265
2,2, 1, 2, 0,10, 0.00,60.00,Wednesday
7,0.375
8,10.0
9,10.0
49,0.0
76,-3.2931234049781826
77,-4.453412746402233
78,-3.216656434933002
79,128.4221711437813
80,129.80590469070077
81,-3.1401894648878215
2,2, 1, 2, 0,11, 0.00,60.00,Wednesday
7,1.2874999999999999
8,10.0
9,10.0
49,0.0
76,-2.991335940585876
77,-4.2396502877065245
78,-2.9335283699878123
79,109.20937412593972
80,107.59319531908575
81,-2.8757207993897484
2,2, 1, 2, 0,12, 0.00,60.00,Wednesday
7,1.7
8,10.0
9,10.0
49,0.0
76,-2.6603202560450168
77,-3.9976819513686426
78,-2.591545314398398
79,138.739624280866
80,136.37131254807167
81,-2.522770372751779
2,2, 1, 2, 0,13, 0.00,60.00,Wednesday
7,1.7
8,10.0
9,10.0
49,0.0
76,-2.2607427020904947
77,-3.711001708244479
78,-2.1879922568018415
79,160.1120955486521
80,158.5032405959645
81,-2.1152418115131884
2,2, 1, 2, 0,14, 0.00,60.00,Wednesday
7,0.6375
8,10.0
9,10.0
49,0.0
76,-2.0177968518644676
77,-3.5720750060743196
78,-2.0542377195633974
79,-8.070412197829814
80,21.476010475398688
81,-2.0906785872623272
2,2, 1, 2, 0,15, 0.00,60.00,Wednesday
7,-0.375
8,10.0
9,10.0
49,0.0
76,-2.1393443535291174
77,-3.6695939596013076
78,-2.1963736270719556
79,-52.20503479585225
80,-55.89368252146854
81,-2.253402900614794
2,2, 1, 2, 0,16, 0.00,60.00,Wednesday
7,0.15
8,10.0
9,10.0
49,0.0
76,-2.2828567767912977
77,-3.777027191255539
78,-2.3400826421067773
79,-48.66366293473827
80,-51.72220343370213
81,-2.397308507422257
2,2, 1, 2, 0,17, 0.00,60.00,Wednesday
7,0.6
8,10.0
9,10.0
49,0.0
76,-2.385363702078352
77,-3.8477174890554684
78,-2.426001576710486
79,-30.872524193741054
80,-32.42169434802807
81,-2.46663945134262
2,2, 1, 2, 0,18, 0.00,60.00,Wednesday
7,-0.15
8,10.0
9,10.0
49,0.0
76,-2.4532770942207893
77,-3.8965087645248984
78,-2.492008359189999
79,-27.08770396963161
80,-24.69558671083442
81,-2.530739624159209
2,2, 1, 2, 0,19, 0.00,60.00,Wednesday
7,0.15
8,10.0
9,10.0
49,0.0
76,-2.50512062894058
77,-3.927725749292158
78,-2.5086432551978177
79,0.6928229044524121
80,-6.830829021373532
81,-2.512165881455056
2,2, 1, 2, 0,20, 0.00,60.00,Wednesday
7,0.9125000000000001
8,10.0
9,10.0
49,0.0
76,-2.4596585050294038
77,-3.8907764672449767
78,-2.442051702960584
79,25.77096211824675
80,25.1070713501715
81,-2.424444900891765
2,2, 1, 2, 0,21, 0.00,60.00,Wednesday
7,1.4749999999999999
8,10.0
9,10.0
49,0.0
76,-2.3803322271173615
77,-3.8356659151747157
78,-2.3574846044090143
79,33.82867096662452
80,32.6493181311756
81,-2.3346369817006667
2,2, 1, 2, 0,22, 0.00,60.00,Wednesday
7,2.0125
8,10.0
9,10.0
49,0.0
76,-2.2860634324760642
77,-3.770486190908543
78,-2.2657940080446304
79,34.612832344682325
80,35.137506991890824
81,-2.245524583613197
2,2, 1, 2, 0,23, 0.00,60.00,Wednesday
7,0.825
8,10.0
9,10.0
49,0.0
76,-2.2602524651733766
77,-3.774482475665602
78,-2.308827732553587
79,-32.296996187478626
80,-18.494143031298847
81,-2.3574029999337984
2,2, 1, 2, 0,24, 0.00,60.00,Wednesday
7,0.0
8,10.0
9,10.0
49,0.0
76,-2.362620894384845