Program Version,EnergyPlus, Version 25.1.0-68a4a7c774, YMD=2025.08.28 16:04
1,5,Environment Title[],Latitude[deg],Longitude[deg],Time Zone[],Elevation[m]
2,8,Day of Simulation[],Month[],Day of Month[],DST Indicator[1=yes 0=no],Hour[],StartMinute[],EndMinute[],DayType
3,5,Cumulative Day of Simulation[],Month[],Day of Month[],DST Indicator[1=yes 0=no],DayType  ! When Daily Report Variables Requested
4,2,Cumulative Days of Simulation[],Month[]  ! When Monthly Report Variables Requested
5,1,Cumulative Days of Simulation[] ! When Run Period Report Variables Requested
6,1,Calendar Year of Simulation[] ! When Annual Report Variables Requested
7,1,Environment,Site Outdoor Air Drybulb Temperature [C] !Hourly
8,1,Environment,Site Total Sky Cover [] !Hourly
9,1,Environment,Site Opaque Sky Cover [] !Hourly
10,7,Environment,Site Daylight Saving Time Status [] !Daily [Value,Min,Hour,Minute,Max,Hour,Minute]
11,7,Environment,Site Day Type Index [] !Daily [Value,Min,Hour,Minute,Max,Hour,Minute]
49,1,ZONE ONE,Zone Total Internal Latent Gain Energy [J] !Hourly
50,9,TEST 352A,Other Equipment Total Heating Energy [J] !Monthly [Value,Min,Day,Hour,Minute,Max,Day,Hour,Minute]
51,9,TEST 352 MINUS,Other Equipment Total Heating Energy [J] !Monthly [Value,Min,Day,Hour,Minute,Max,Day,Hour,Minute]
52,9,ZONE ONE,Zone Other Equipment Total Heating Energy [J] !Monthly [Value,Min,Day,Hour,Minute,Max,Day,Hour,Minute]
53,7,ZN001:WALL001,Surface Inside Face Temperature [C] !Daily [Value,Min,Hour,Minute,Max,Hour,Minute]
54,7,ZN001:WALL001,Surface Outside Face Temperature [C] !Daily [Value,Min,Hour,Minute,Max,Hour,Minute]
55,7,ZN001:WALL001,Surface Inside Face Convection Heat Transfer Coefficient [W/m2-K] !Daily [Value,Min,Hour,Minute,Max,Hour,Minute]
56,7,ZN001:WALL001,Surface Outside Face Convection Heat Transfer Coefficient [W/m2-K] !Daily [Value,Min,Hour,Minute,Max,Hour,Minute]
57,7,ZN001:WALL002,Surface Inside Face Temperature [C] !Daily [Value,Min,Hour,Minute,Max,Hour,Minute]
58,7,ZN001:WALL002,Surface Outside Face Temperature [C] !Daily [Value,Min,Hour,Minute,Max,Hour,Minute]
59,7,ZN001:WALL002,Surface Inside Face Convection Heat Transfer Coefficient [W/m2-K] !Daily [Value,Min,Hour,Minute,Max,Hour,Minute]
60,7,ZN001:WALL002,Surface Outside Face Convection Heat Transfer Coefficient [W/m2-K] !Daily [Value,Min,Hour,Minute,Max,Hour,Minute]
61,7,ZN001:WALL003,Surface Inside Face Temperature [C] !Daily [Value,Min,Hour,Minute,Max,Hour,Minute]
62,7,ZN001:WALL003,Surface Outside Face Temperature [C] !Daily [Value,Min,Hour,Minute,Max,Hour,Minute]
63,7,ZN001:WALL003,Surface Inside Face Convection Heat Transfer Coefficient [W/m2-K] !Daily [Value,Min,Hour,Minute,Max,Hour,Minute]
64,7,ZN001:WALL003,Surface Outside Face Convection Heat Transfer Coefficient [W/m2-K] !Daily [Value,Min,Hour,Minute,Max,Hour,Minute]
65,7,ZN001:WALL004,Surface Inside Face Temperature [C] !Daily [Value,Min,Hour,Minute,Max,Hour,Minute]
66,7,ZN001:WALL004,Surface Outside Face Temperature [C] !Daily [Value,Min,Hour,Minute,Max,Hour,Minute]
67,7,ZN001:WALL004,Surface Inside Face Convection Heat Transfer Coefficient [W/m2-K] !Daily [Value,Min,Hour,Minute,Max,Hour,Minute]
68,7,ZN001:WALL004,Surface Outside Face Convection Heat Transfer Coefficient [W/m2-K] !Daily [Value,Min,Hour,Minute,Max,Hour,Minute]
69,7,ZN001:FLR001,Surface Inside Face Temperature [C] !Daily [Value,Min,Hour,Minute,Max,Hour,Minute]
70,7,ZN001:FLR001,Surface Outside Face Temperature [C] !Daily [Value,Min,Hour,Minute,Max,Hour,Minute]
71,7,ZN001:FLR001,Surface Inside Face Convection Heat Transfer Coefficient [W/m2-K] !Daily [Value,Min,Hour,Minute,Max,Hour,Minute]
72,7,ZN001:ROOF001,Surface Inside Face Temperature [C] !Daily [Value,Min,Hour,Minute,Max,Hour,Minute]
73,7,ZN001:ROOF001,Surface Outside Face Temperature [C] !Daily [Value,Min,Hour,Minute,Max,Hour,Minute]
74,7,ZN001:ROOF001,Surface Inside Face Convection Heat Transfer Coefficient [W/m2-K] !Daily [Value,Min,Hour,Minute,Max,Hour,Minute]
75,7,ZN001:ROOF001,Surface Outside Face Convection Heat Transfer Coefficient [W/m2-K] !Daily [Value,Min,Hour,Minute,Max,Hour,Minute]
76,1,ZONE ONE,Zone Mean Air Temperature [C] !Hourly
77,1,ZONE ONE,Zone Wetbulb Globe Temperature [C] !Hourly
78,1,ZONE ONE,Zone Operative Temperature [C] !Hourly
79,1,ZONE ONE,Zone Air Heat Balance Surface Convection Rate [W] !Hourly
80,1,ZONE ONE,Zone Air Heat Balance Air Energy Storage Rate [W] !Hourly
81,1,ZONE ONE,Zone Mean Radiant Temperature [C] !Hourly
17,11,Electricity:Facility [J] !Annual [Value,Min,Month,Day,Hour,Minute,Max,Month,Day,Hour,Minute]
End of Data Dictionary
1,DENVER CENTENNIAL  GOLDEN   N ANN HTG 99% CONDNS DB,  41.98, -87.92,  -6.00, 201.00
2,1,12,21, 0, 1, 0.00,60.00,WinterDesignDay
7,-15.5
8,6.75
9,6.75
49,0.0
76,-18.020010376005434
77,-18.019570403879694
78,-18.01856070631893
79,-0.027395214094350973
80,-0.027464635154933335
81,-18.017111036632425
2,1,12,21, 0, 2, 0.00,60.00,WinterDesignDay
7,-15.5
8,9.625
9,9.625
49,0.0
76,-18.020078083121938
77,-18.01964139219608
78,-18.018629482365203
79,-0.026846359811314002
80,-0.02691439200587624
81,-18.017180881608468
2,1,12,21, 0, 3, 0.00,60.00,WinterDesignDay
7,-15.5
8,10.0
9,10.0
49,0.0
76,-18.020144433711177
77,-18.019704905460664
78,-18.01869687983492
79,-0.026308486129837938
80,-0.02637515715601609
81,-18.017249325958666
2,1,12,21, 0, 4, 0.00,60.00,WinterDesignDay
7,-15.5
8,10.0
9,10.0
49,0.0
76,-18.020209454913935
77,-18.019770228199533
78,-18.018762926336777
79,-0.025781374057751272
80,-0.025846711069303117
81,-18.01731639775963
2,1,12,21, 0, 5, 0.00,60.00,WinterDesignDay
7,-15.5
8,10.0
9,10.0
49,0.0
76,-18.02027317332966
77,-18.01983919510146
78,-18.018827648927633
79,-0.025264808939270633
80,-0.025328838539862616
81,-18.017382124525604
2,1,12,21, 0, 6, 0.00,60.00,WinterDesignDay
7,-15.5
8,10.0
9,10.0
49,0.0
76,-18.020335615027165
77,-18.019901157935966
78,-18.018891074123438
79,-0.02475858036162526
80,-0.024821328642046985
81,-18.01744653321971
2,1,12,21, 0, 7, 0.00,60.00,WinterDesignDay
7,-15.5
8,10.0
9,10.0
49,0.0
76,-18.020396805555112
77,-18.019962351242338
78,-18.018953227910046
79,-0.02426248208575421
80,-0.024323974611567004
81,-18.017509650264984
2,1,12,21, 0, 8, 0.00,60.00,WinterDesignDay
7,-15.5
8,8.75
9,8.75
49,0.0
76,-18.02045676995239
77,-18.020023558963736
78,-18.019014135753782
79,-0.023776311958045415
80,-0.02383657379716078
81,-18.017571501555175
2,1,12,21, 0, 9, 0.00,60.00,WinterDesignDay
7,-15.5
8,3.0
9,3.0
49,0.0
76,-18.020515532758118
77,-18.020079194673922
78,-18.01907382261171
79,-0.02329987183529747
80,-0.023358927553101632
81,-18.0176321124653
2,1,12,21, 0,10, 0.00,60.00,WinterDesignDay
7,-15.5
8,1.25
9,0.0
49,0.0
76,-18.020573118021655
77,-18.02013469479145
78,-18.019132312941853
79,-0.022832967499499812
80,-0.022890841168667377
81,-18.01769150786205
2,1,12,21, 0,11, 0.00,60.00,WinterDesignDay
7,-15.5
8,0.75
9,0.0
49,0.0
76,-18.020629549312243
77,-18.020194078564423
78,-18.0191896307131
79,-0.02237540859766174
80,-0.022432123813386152
81,-18.017749712113954
2,1,12,21, 0,12, 0.00,60.00,WinterDesignDay
7,-15.5
8,3.75
9,1.25
49,0.0
76,-18.0206848497286
77,-18.02025087367508
78,-18.019245799414964
79,-0.021927008535672865
80,-0.02198258844273233
81,-18.017806749101325
2,1,12,21, 0,13, 0.00,60.00,WinterDesignDay
7,-15.5
8,8.5
9,5.75
49,0.0
76,-18.020739041908207
77,-18.020302377810538
78,-18.01930084206712
79,-0.02148758443221821
80,-0.021542051697226675
81,-18.01786264222604
2,1,12,21, 0,14, 0.00,60.00,WinterDesignDay
7,-15.5
8,10.0
9,8.625
49,0.0
76,-18.02079214803647
77,-18.02035850413487
78,-18.019354781228795
79,-0.021056957048287472
80,-0.02111033389951928
81,-18.01791741442112
2,1,12,21, 0,15, 0.00,60.00,WinterDesignDay
7,-15.5
8,9.375
9,9.0
49,0.0
76,-18.02084418985573
77,-18.02040915879727
78,-18.01940763900791
79,-0.02063495068924448
80,-0.020687258893975692
81,-18.01797108816008
2,1,12,21, 0,16, 0.00,60.00,WinterDesignDay
7,-15.5
8,9.625
9,9.625
49,0.0
76,-18.02089518867404
77,-18.020459466323157
78,-18.019459437070097
79,-0.02022139315763649
80,-0.02027265407008448
81,-18.018023685466158
2,1,12,21, 0,17, 0.00,60.00,WinterDesignDay
7,-15.5
8,10.0
9,10.0
49,0.0
76,-18.02094516537379
77,-18.02051167707934
78,-18.019510196647538
79,-0.01981611567751873
80,-0.019866350216977434
81,-18.018075227921287
2,1,12,21, 0,18, 0.00,60.00,WinterDesignDay
7,-15.5
8,10.0
9,10.0
49,0.0
76,-18.020994140420203
77,-18.020561426321883
78,-18.019559938547587
79,-0.019418952819677315
80,-0.01946818150029936
81,-18.018125736674968
2,1,12,21, 0,19, 0.00,60.00,WinterDesignDay
7,-15.5
8,10.0
9,10.0
49,0.0
76,-18.021042133869578
77,-18.020608409081426
78,-18.019608683161238
79,-0.01902974246563982
80,-0.019077985374344984
81,-18.018175232452904
2,1,12,21, 0,20, 0.00,60.00,WinterDesignDay
7,-15.5
8,10.0
9,10.0
49,0.0
76,-18.021089165377486
77,-18.02065476902108
78,-18.01965645047148
79,-0.01864832569773167
80,-0.018695602546930878
81,-18.018223735565478
2,1,12,21, 0,21, 0.00,60.00,WinterDesignDay
7,-15.5
8,10.0
9,10.0
49,0.0
76,-18.021135254206676
77,-18.0207007831701
78,-18.019703260061377
79,-0.018274546764542876
80,-0.018320876862882342
81,-18.01827126591607
2,1,12,21, 0,22, 0.00,60.00,WinterDesignDay
7,-15.5
8,10.0
9,10.0
49,0.0
76,-18.021180419234913
77,-18.020746768364734
78,-18.019749131122055
79,-0.017908253026637677
80,-0.01795365528416008
81,-18.018317843009196
2,1,12,21, 0,23, 0.00,60.00,WinterDesignDay
7,-15.5
8,7.5
9,7.5
49,0.0
76,-18.021224678962668
77,-18.020792060261975
78,-18.019794082460585
79,-0.017549294863759002
80,-0.017593787843929558
81,-18.018363485958503
2,1,12,21, 0,24, 0.00,60.00,WinterDesignDay
7,-15.5
8,4.125
9,4.125
49,0.0
76,-18.021268051520572
77,-18.020834672961335
78,-18.01983813250758
79,-0.01719752564828836
80,-0.017241127519952527
81,-18.018408213494588
3,1,12,21, 0,WinterDesignDay
10,0.0,0.0, 1,15,0.0, 1,15
11,10.000000,10.0, 1,15,10.0, 1,15
53,-17.948494873335942,-17.949040711098835,24,60,-17.9478553543362, 1,15
54,-17.465860403550078,-17.46589230842774,24,60,-17.465823022962667, 1,15
55,0.5453334742571198,0.545177755141853, 1,15,0.545466483309339,24,60
56,7.151370266365984,7.151369231265153,24,60,7.1513714791462855, 1,15
57,-17.94246550741728,-17.94301143906607,24,60,-17.941825878594724, 1,15
58,-17.420321036900543,-17.420352240493173,24,60,-17.420284477958628, 1,15
59,0.5601116859003586,0.5599643413513927, 1,15,0.5602375450735346,24,60
60,7.416309811606525,7.416308597760791,24,60,7.416311233809843, 1,15
61,-17.94246550741728,-17.94301143906607,24,60,-17.941825878594724, 1,15
62,-17.420321036900543,-17.420352240493173,24,60,-17.420284477958628, 1,15
63,0.5601116859003586,0.5599643413513927, 1,15,0.5602375450735346,24,60
64,7.416309811606525,7.416308597760791,24,60,7.416311233809843, 1,15
65,-17.948494873335942,-17.949040711098835,24,60,-17.9478553543362, 1,15
66,-17.465860403550078,-17.46589230842774,24,60,-17.465823022962667, 1,15
67,0.5453334742571198,0.545177755141853, 1,15,0.545466483309339,24,60
68,7.151370266365984,7.151369231265153,24,60,7.1513714791462855, 1,15
69,-18.02512337494962,-18.02583755410138,24,60,-18.024286581367818, 1,15
70,-18.025107004188413,-18.02582481029258,24,60,-18.02426596102579, 1,15
71,0.12484024890515734,0.12355038126165391, 1,15,0.12592656795567525,24,60
72,-18.097284810509606,-18.097890480114444,24,60,-18.09657518796995, 1,15
73,-20.30294153916014,-20.302950523694015,24,60,-20.302931012573644, 1,15
74,0.645548382340292,0.6455241350020919, 1,15,0.6455689058069889,24,60
75,8.618955360966405,8.618955124708688,24,60,8.618955637774327, 1,15
4,1,12
50,30412800.0,9999.0, 0, 0, 0,316800.0,21, 1,15
51,-30412800.0,-316800.0,21, 1,15,-9999.0, 0, 0, 0
52,0.0,0.0,21, 1,15,0.0,21, 1,15
1,DENVER CENTENNIAL  GOLDEN   N ANN CLG 1% CONDNS DB=>MWB,  41.98, -87.92,  -6.00, 201.00
2,1, 7,21, 0, 1, 0.00,60.00,SummerDesignDay
7,18.966
8,6.75
9,6.75
49,0.0
76,28.70766539894761
77,18.623815453874556
78,28.614217197740835
79,-124.06481289351876
80,-124.04922879333944
81,28.52076899653406
2,1, 7,21, 0, 2, 0.00,60.00,SummerDesignDay
7,18.244
8,9.625
9,9.625
49,0.0
76,28.34580708053841
77,18.419975677320906
78,28.25301101715729
79,-120.3940988825387
80,-121.1528486018943
81,28.16021495377618
2,1, 7,21, 0, 3, 0.00,60.00,SummerDesignDay
7,17.731
8,10.0
9,10.0
49,0.0
76,27.996146418618224
77,18.222585813531722
78,27.90406944217466
79,-117.10862523895821
80,-117.52038727255339
81,27.811992465731095
2,1, 7,21, 0, 4, 0.00,60.00,SummerDesignDay
7,17.275000000000002
8,10.0
9,10.0
49,0.0
76,27.652149113361343
77,18.027626250166854
78,27.55965566547916
79,-117.08363390967685
80,-117.01400360135685
81,27.467162217596982
2,1, 7,21, 0, 5, 0.00,60.00,SummerDesignDay
7,16.913999999999998
8,10.0
9,10.0
49,0.0
76,27.315828341088277
77,17.83892599245673
78,27.230669372787485
79,-102.67328937754844
80,-108.51948613101328
81,27.145510404486693
2,1, 7,21, 0, 6, 0.00,60.00,SummerDesignDay
7,16.990000000000002
8,10.0
9,10.0
49,0.0
76,27.330908854204456
77,17.887044547650625
78,27.377602867301512
79,125.88174033314903
80,95.80834031433426
81,27.424296880398565
2,1, 7,21, 0, 7, 0.00,60.00,SummerDesignDay
7,17.769
8,10.0
9,10.0
49,0.0
76,27.760330263271165
77,18.136080209386556
78,27.82498034341894
79,140.0401780315699
80,145.27449683989462
81,27.889630423566718
2,1, 7,21, 0, 8, 0.00,60.00,SummerDesignDay
7,19.783
8,8.75
9,8.75
49,0.0
76,28.182832662189043
77,18.375058196065936
78,28.247186406304365
79,164.38375341331295
80,155.17136268943236
81,28.311540150419695
2,1, 7,21, 0, 9, 0.00,60.00,SummerDesignDay
7,22.557
8,3.0
9,3.0
49,0.0
76,28.75424018444154
77,18.702111169917636
78,28.834475126409373
79,212.61121942445544
80,210.4793709155614
81,28.91471006837721
2,1, 7,21, 0,10, 0.00,60.00,SummerDesignDay
7,25.255000000000003
8,1.25
9,0.0
49,0.0
76,29.3628393957333
77,19.0417462725988
78,29.435112974700065
79,193.02749674189312
80,197.1178750629039
81,29.507386553666827
2,1, 7,21, 0,11, 0.00,60.00,SummerDesignDay
7,27.649
8,0.75
9,0.0
49,0.0
76,29.887234181675204
77,19.33167998283085
78,29.947075864349493
79,160.26121594708593
80,164.5746535585381
81,30.00691754702378
2,1, 7,21, 0,12, 0.00,60.00,SummerDesignDay
7,29.454
8,3.75
9,1.25
49,0.0
76,30.295702192827648
77,19.553598095375538
78,30.334980001463805
79,114.6587400506058
80,120.2948157936502
81,30.37425781009997
2,1, 7,21, 0,13, 0.00,60.00,SummerDesignDay
7,30.784
8,8.5
9,5.75
49,0.0
76,30.69947601179553
77,19.788238111438453
78,30.771335405880926
79,176.05481729957967
80,163.0424993938418
81,30.843194799966323
2,1, 7,21, 0,14, 0.00,60.00,SummerDesignDay
7,31.715
8,10.0
9,8.625
49,0.0
76,31.25873281310567
77,20.093255954947004
78,31.312112052275033
79,184.0200877634369
80,187.86866016253612
81,31.365491291444393
2,1, 7,21, 0,15, 0.00,60.00,SummerDesignDay
7,32.0
8,9.375
9,9.0
49,0.0
76,31.739101836214676
77,20.34545388137645
78,31.746689286665415
79,133.57609745973213
80,141.09908125772023
81,31.754276737116157
2,1, 7,21, 0,16, 0.00,60.00,SummerDesignDay
7,31.43
8,9.625
9,9.625
49,0.0
76,32.03298534832332
77,20.48860621425749
78,31.976691820171023
79,60.60707773641426
80,70.5974494232685
81,31.920398292018724
2,1, 7,21, 0,17, 0.00,60.00,SummerDesignDay
7,30.328
8,10.0
9,10.0
49,0.0
76,32.12105739737803
77,20.519583964307106
78,32.00606527769025
79,3.872705043993678
80,9.558316173111844
81,31.891073158002463
2,1, 7,21, 0,18, 0.00,60.00,SummerDesignDay
7,28.922
8,10.0
9,10.0
49,0.0
76,32.020068271861085
77,20.455398727088088
78,31.87685658862161
79,-87.38390771841807
80,-70.82037232073105
81,31.733644905382135
2,1, 7,21, 0,19, 0.00,60.00,SummerDesignDay
7,26.927
8,10.0
9,10.0
49,0.0
76,31.47145182377589
77,20.132375284288845
78,31.262621988780417
79,-301.0596280571332
80,-268.90558824963864
81,31.05379215378494
2,1, 7,21, 0,20, 0.00,60.00,SummerDesignDay
7,25.027
8,10.0
9,10.0
49,0.0
76,30.56982884624995
77,19.65973427431592
78,30.453899184079205
79,-218.76323326985343
80,-254.75398626140066
81,30.337969521908462
2,1, 7,21, 0,21, 0.00,60.00,SummerDesignDay
7,23.544999999999998
8,10.0
9,10.0
49,0.0
76,30.125204982981316
77,19.421260363743805
78,30.04045255691489
79,-120.12079371305657
80,-120.86199950090256
81,29.955700130848463
2,1, 7,21, 0,22, 0.00,60.00,SummerDesignDay
7,22.177
8,10.0
9,10.0
49,0.0
76,29.778757299805353
77,19.22710144658913
78,29.69217577270352
79,-118.21247479323574
80,-117.55405999634642
81,29.605594245601683
2,1, 7,21, 0,23, 0.00,60.00,SummerDesignDay
7,20.999000000000002
8,7.5
9,7.5
49,0.0
76,29.427573505347304
77,19.029955020804955
78,29.339439050039957
79,-118.19318066281562
80,-118.50862586071045
81,29.251304594732606
2,1, 7,21, 0,24, 0.00,60.00,SummerDesignDay
7,19.935000000000002
8,4.125
9,4.125
49,0.0
76,29.073409094707298
77,18.83017110860176
78,28.981970069322998
79,-122.1365512680778
80,-121.46413655387106
81,28.890531043938694
3,1, 7,21, 0,SummerDesignDay
10,0.0,0.0, 1,15,0.0, 1,15
11,9.000000,9.0, 1,15,9.0, 1,15
53,29.502718387182526,26.21247488509617, 5,60,32.717347268854944,15,15
54,28.521347332727704,15.568177422923801, 5,45,49.88782407048315,13,30
55,1.2119217712155625,0.5216834344558282, 9,15,1.522068583708388,13,45
56,9.796562414550726,9.648564679959641,16,30,10.378666545017657,19,45
57,29.659024880150284,26.24642284066364, 5,45,32.073055915410414,16,30
58,30.384777080224563,15.713460368916152, 5,45,52.427812838217974, 9,15
59,1.1910615207267155,0.20956128147426575,16,60,1.6417159036488524, 9,30
60,11.653547740656395,11.42663704046729,11,60,12.166475909820317,19,45
61,29.280050802458963,26.246399989752256, 5,45,32.11374930758141,18,15
62,25.68610534283847,15.713191285677821, 5,45,35.581211560770605,14,60
63,0.9586146154890994,0.20956128147426575,16,60,1.3208975172271868, 5,15
64,11.661868243363585,11.479243034904039, 7,30,12.14329833618947, 6,15
65,29.67792529687469,26.21247488509617, 5,60,34.357579213410865,16,60
66,30.836867725932734,15.568177422923801, 5,45,63.93549906578817,16,60
67,1.221216841035239,0.3516932638366892,10,30,1.7230186199468616,16,60
68,9.804252543929845,9.648610997176094,13,45,10.288858211574539, 6,45
69,29.58312186500538,28.02154775716598, 7,30,31.198055349731348,19,15
70,29.583107361706414,28.02154775716598, 7,45,31.198055349731348,19,30
71,1.0460851736857277,0.1,20,15,1.5181895403223553, 5,60
72,29.665943571184386,26.89872614480288, 5,60,32.22497483347501,16,15
73,32.312903079925995,12.963768827945897, 5,45,60.63593563313236,13,30
74,0.8037950907343588,0.1,17,30,1.2143478927933606,20,15
75,13.38006910686695,13.087110229247841,17,30,13.867169969957182, 6,45
4,1, 7
50,30412800.0,316800.0,21, 1,15,316800.0,21, 1,15
51,-30412800.0,-316800.0,21, 1,15,-316800.0,21, 1,15
52,0.0,0.0,21, 1,15,0.0,21, 1,15
1,RUN PERIOD 1,  41.98, -87.92,  -6.00, 201.00
2,1, 1, 1, 0, 1, 0.00,60.00,Tuesday
7,-8.2625
8,6.75
9,6.75
49,0.0
76,-3.809999155549547
77,-4.903690472546204
78,-3.996468139517418
79,-309.68947421589706
80,-255.5670422036368
81,-4.18293712348529
2,1, 1, 1, 0, 2, 0.00,60.00,Tuesday
7,-11.8875
8,9.625
9,9.625
49,0.0
76,-4.57033988371272
77,-5.433907293362014
78,-4.668589787535591
79,-163.99420733298683
80,-213.68697196197058
81,-4.766839691358462
2,1, 1, 1, 0, 3, 0.00,60.00,Tuesday
7,-11.325
8,10.0
9,10.0
49,0.0
76,-4.822602119671216
77,-5.613379986626429
78,-4.88904804738801
79,-65.35922439377188
80,-66.3716102141822
81,-4.955493975104805
2,1, 1, 1, 0, 4, 0.00,60.00,Tuesday
7,-11.1
8,10.0
9,10.0
49,0.0
76,-4.980879171284283
77,-5.732204446017295
78,-5.044982361657389
79,-61.39809802370579
80,-60.66829816913855
81,-5.1090855520304945
2,1, 1, 1, 0, 5, 0.00,60.00,Tuesday
7,-10.7875
8,10.0
9,10.0
49,0.0
76,-5.129580094250475
77,-5.841494031287395
78,-5.186513195247888
79,-49.965971448317006
80,-52.21565287012567
81,-5.243446296245302
2,1, 1, 1, 0, 6, 0.00,60.00,Tuesday
7,-10.6
8,10.0
9,10.0
49,0.0
76,-5.26300606264533
77,-5.942321615097235
78,-5.322197723529402
79,-56.18790223210125
80,-54.29044874515361
81,-5.381389384413474
2,1, 1, 1, 0, 7, 0.00,60.00,Tuesday
7,-10.6
8,10.0
9,10.0
49,0.0
76,-5.411553881386258
77,-6.0534818735608
78,-5.469043061444533
79,-55.57116883434013
80,-56.366374150584505
81,-5.526532241502808
2,1, 1, 1, 0, 8, 0.00,60.00,Tuesday
7,-10.225
8,8.75
9,8.75
49,0.0
76,-5.440006392178351
77,-6.0405314249851525
78,-5.382884546962131
79,109.56036309197864
80,63.868901940371515
81,-5.325762701745913
2,1, 1, 1, 0, 9, 0.00,60.00,Tuesday
7,-9.3125
8,3.0
9,3.0
49,0.0
76,-4.663550246315101
77,-5.4243754344834425
78,-4.490981589343759
79,418.75493056076795
80,404.4065672546029
81,-4.31841293237242
2,1, 1, 1, 0,10, 0.00,60.00,Tuesday
7,-7.525
8,1.25
9,0.0
49,0.0
76,-3.7045915346699623
77,-4.757373149023839
78,-3.68243107225129
79,269.1908602719727
80,299.82599712191353
81,-3.660270609832617
2,1, 1, 1, 0,11, 0.00,60.00,Tuesday
7,-5.6375
8,0.75
9,0.0
49,0.0
76,-3.1565927787516963
77,-4.3694415859374125
78,-3.1800252547443906
79,171.53855524846102
80,176.5371477058464
81,-3.2034577307370844
2,1, 1, 1, 0,12, 0.00,60.00,Tuesday
7,-3.9375
8,3.75
9,1.25
49,0.0
76,-2.8524720960339374
77,-4.163871509452375
78,-2.9231605731863572
79,44.59073440223998
80,65.79601426585155
81,-2.9938490503387767
2,1, 1, 1, 0,13, 0.00,60.00,Tuesday
7,-2.6125
8,8.5
9,5.75
49,0.0
76,-2.8797550490008184
77,-4.1857223109657244
78,-2.9462002776945573
79,-25.77005964436257
80,-31.90521841026935
81,-3.012645506388296
2,1, 1, 1, 0,14, 0.00,60.00,Tuesday
7,-1.5125000000000002
8,10.0
9,8.625
49,0.0
76,-2.8621544420619136
77,-4.158290386899047
78,-2.8761016848398238
79,38.335205367245024
80,32.35789329607221
81,-2.890048927617734
2,1, 1, 1, 0,15, 0.00,60.00,Tuesday
7,-1.1
8,9.375
9,9.0
49,0.0
76,-2.7395088834704557
77,-4.074118203038508
78,-2.771688542988972
79,27.684780084135564
80,37.71520049838753
81,-2.8038682025074886
2,1, 1, 1, 0,16, 0.00,60.00,Tuesday
7,-1.1
8,9.625
9,9.625
49,0.0
76,-2.810799293837073
77,-4.142751742983846
78,-2.898084958781469
79,-74.08703818881322
80,-65.33058842707295
81,-2.9853706237258653
2,1, 1, 1, 0,17, 0.00,60.00,Tuesday
7,-1.1
8,10.0
9,10.0
49,0.0
76,-3.0922931006612053
77,-4.358901932842788
78,-3.213052305440962
79,-129.36540132538042
80,-126.37583588186912
81,-3.3338115102207193
2,1, 1, 1, 0,18, 0.00,60.00,Tuesday
7,-1.4749999999999999
8,10.0
9,10.0
49,0.0
76,-3.366954637451152
77,-4.5443593065924865
78,-3.4336981490615606
79,-72.44213790322114
80,-79.76354809524126
81,-3.500441660671969
2,1, 1, 1, 0,19, 0.00,60.00,Tuesday
7,-2.0125
8,10.0
9,10.0
49,0.0
76,-3.487605592184888
77,-4.617259441445021
78,-3.5014221300650434
79,-17.78944994919283
80,-25.021554315182005
81,-3.5152386679451992
2,1, 1, 1, 0,20, 0.00,60.00,Tuesday
7,-1.5125000000000002
8,10.0
9,10.0
49,0.0
76,-3.4744883357968104
77,-4.5935844345292445
78,-3.4415818404633964
79,27.076121585736956
80,21.476592261881642
81,-3.4086753451299825
2,1, 1, 1, 0,21, 0.00,60.00,Tuesday
7,-1.4749999999999999
8,10.0
9,10.0
49,0.0
76,-3.4232723797381928
77,-4.573416542810461
78,-3.442317633029204
79,-11.300953582544405
80,0.8819611338364375
81,-3.4613628863202153
2,1, 1, 1, 0,22, 0.00,60.00,Tuesday
7,-1.3249999999999997
8,10.0
9,10.0
49,0.0
76,-3.452759655680077
77,-4.58398864150797
78,-3.4308149945463677
79,16.805713285886092
80,4.243062406317493
81,-3.408870333412658
2,1, 1, 1, 0,23, 0.00,60.00,Tuesday
7,-1.4749999999999999
8,7.5
9,7.5
49,0.0
76,-3.4041024839843743
77,-4.560183641771597
78,-3.4156472175787176
79,-2.99730517815597
80,6.933048535755208
81,-3.427191951173061
2,1, 1, 1, 0,24, 0.00,60.00,Tuesday
7,-1.7
8,4.125
9,4.125
49,0.0
76,-3.4571401988929735
77,-4.604805910275575
78,-3.4834457486193457
79,-25.932384613379075
80,-26.830122495532656
81,-3.5097512983457193
3,1, 1, 1, 0,Tuesday
10,0.0,0.0, 1,15,0.0, 1,15
11,3.000000,3.0, 1,15,3.0, 1,15
53,-3.5691834616731715,-6.1696124840410915, 8,15,-0.5027902366626646,12,30
54,-0.46585050194528793,-13.141792571309939, 1,60,23.59219126376858,11,30
55,1.0599735553932748,0.17189890374004174,19,60,1.7844554156235133,11,45
56,7.061415638665401,1.4708492548029168,21,60,13.078336276053307,11,45
57,-3.807836179066499,-6.169623954408372, 8,15,-1.9883612234303427,11,30
58,-2.902267389141821,-13.139538023896874, 1,60,15.271507065420439, 9,60
59,0.9384871662185487,0.13837675601816285,19,60,1.669417446201966, 9,45
60,6.612524855581346,1.5240785230747724,21,60,10.66896338099364,12,60
61,-4.074086575806083,-6.171503993470018, 8,15,-2.4037617073915682,15,15
62,-5.475827323365356,-13.14186400841669, 1,60,1.4803371799252765,14,30
63,0.8267027826418362,0.2363828496002737,23,60,1.3727459936266782, 2,15
64,6.629547730855528,1.5239791138687708,21,60,10.840830774963937,10,60
65,-4.029102108614299,-6.1696124840410915, 8,15,-1.956731531198497,15,30
66,-5.053199323094679,-13.141792571307866, 1,60,5.361259355330507,15,30
67,0.8733993087261381,0.2363827834168003,23,60,1.3727317779596275, 2,15
68,7.126689614165108,1.470785260125674,21,60,13.537323301408655,10,60
69,-3.9265742600289495,-4.856048147235887, 8,45,-3.4473242553781223,23,15
70,-3.9265583364432772,-4.856048147235887, 8,60,-3.4473242553781223,23,30
71,0.7890581820073078,0.1,22,60,1.4516731182681224, 3,15
72,-3.952663802773216,-5.746304263722873, 8,15,-2.6793860205181814,15,15
73,-5.826125947494511,-15.66071203196199, 1,60,6.997773575018783,12,30
74,0.6764494823822873,0.13657679572425405, 8,60,1.2324910150568547, 2,15
75,8.029336792498285,1.259219302669887,21,60,15.091801595877408,10,60
2,2, 1, 2, 0, 1, 0.00,60.00,Wednesday
7,-3.0749999999999997
8,2.375
9,2.375
49,0.0
76,-3.5812688699531563
77,-4.708357597545424
78,-3.647992998713487
79,-82.6392365025682
80,-71.0994432191427
81,-3.7147171274738175
2,2, 1, 2, 0, 2, 0.00,60.00,Wednesday
7,-3.2124999999999995
8,3.25
9,2.625
49,0.0
76,-3.7499533386990667
77,-4.816716687964448
78,-3.763175991535502
79,-14.106315776744344
80,-32.145271832491154
81,-3.7763986443719375
2,2, 1, 2, 0, 3, 0.00,60.00,Wednesday
7,-3.1125
8,2.75
9,2.375
49,0.0
76,-3.7573736964385356
77,-4.827079083452183
78,-3.7804445202396106
79,-17.02682612007404
80,-8.76246706094776
81,-3.8035153440406853
2,2, 1, 2, 0, 4, 0.00,60.00,Wednesday
7,-2.9875
8,5.75
9,4.5
49,0.0
76,-3.8105241453309184
77,-4.864733826738229
78,-3.824417579969958
79,-10.103436747991267
80,-15.2099195352942
81,-3.838311014608997
2,2, 1, 2, 0, 5, 0.00,60.00,Wednesday
7,-1.7374999999999998
8,9.25
9,7.25
49,0.0
76,-3.7633956043793395
77,-4.809517797285427
78,-3.709229643887065
79,51.326073097444215
80,41.82605572472787
81,-3.655063683394791
2,2, 1, 2, 0, 6, 0.00,60.00,Wednesday
7,-1.1
8,10.0
9,8.0
49,0.0
76,-3.61752878113116
77,-4.706743436289321
78,-3.5794748135277006
79,42.41794722576944
80,49.00375945994592
81,-3.5414208459242413
2,2, 1, 2, 0, 7, 0.00,60.00,Wednesday
7,-0.7875000000000001
8,10.0
9,9.25
49,0.0
76,-3.5219824329139833
77,-4.636309292629672
78,-3.4902827088525776
79,39.289687265354836
80,36.63900922026868
81,-3.458582984791172
2,2, 1, 2, 0, 8, 0.00,60.00,Wednesday
7,-0.6
8,10.0
9,10.0
49,0.0
76,-3.40185699791449
77,-4.546056996845096
78,-3.36137120332874
79,57.17647721925089
80,53.154943832337274
81,-3.32088540874299
2,2, 1, 2, 0, 9, 0.00,60.00,Wednesday
7,-0.225
8,10.0
9,10.0
49,0.0
76,-3.1675833123780945
77,-4.361555687806486
78,-3.088205630965624
79,128.03868401140096
80,116.62884819957475
81,-3.008827949553153
2,2, 1, 2, 0,10, 0.00,60.00,Wednesday
7,0.375
8,10.0
9,10.0
49,0.0
76,-2.7331490585871117
77,-4.041348674778117
78,-2.6500560156194446
79,176.08789126261232
80,179.16016529183884
81,-2.5669629726517775
2,2, 1, 2, 0,11, 0.00,60.00,Wednesday
7,1.2874999999999999
8,10.0
9,10.0
49,0.0
76,-2.327071381353608
77,-3.755780778072088
78,-2.2715179721777736
79,145.73328747943174
80,143.1067347101833
81,-2.2159645630019393
2,2, 1, 2, 0,12, 0.00,60.00,Wednesday
7,1.7
8,10.0
9,10.0
49,0.0
76,-1.8825860880326548
77,-3.4339950739790446
78,-1.8176004003016637
79,184.38432098425244
80,181.98233570602181
81,-1.7526147125706726
2,2, 1, 2, 0,13, 0.00,60.00,Wednesday
7,1.7
8,10.0
9,10.0
49,0.0
76,-1.353379783591884
77,-3.0574949674971443
78,-1.2871623514134802
79,211.51224867847685
80,209.0603263521818
81,-1.2209449192350763
2,2, 1, 2, 0,14, 0.00,60.00,Wednesday
7,0.6375
8,10.0
9,10.0
49,0.0
76,-1.053625430323493
77,-2.889402975946984
78,-1.1289822799999478
79,-28.4079212292615
80,13.037808637001042
81,-1.2043391296764026
2,2, 1, 2, 0,15, 0.00,60.00,Wednesday
7,-0.375
8,10.0
9,10.0
49,0.0
76,-1.2562900980694072
77,-3.0427168546601986
78,-1.346905449216416
79,-81.50320389582811
80,-87.0077631626574
81,-1.4375208003634252
2,2, 1, 2, 0,16, 0.00,60.00,Wednesday
7,0.15
8,10.0
9,10.0
49,0.0
76,-1.480256562184362
77,-3.2031895560252424
78,-1.5580075947029173
79,-73.9354305250992
80,-79.4987112842245
81,-1.6357586272214726
2,2, 1, 2, 0,17, 0.00,60.00,Wednesday
7,0.6
8,10.0
9,10.0
49,0.0
76,-1.6352226496175262
77,-3.3093522219541924
78,-1.6907092699856685
79,-47.82485451547771
80,-49.56029078499509
81,-1.7461958903538104
2,2, 1, 2, 0,18, 0.00,60.00,Wednesday
7,-0.15
8,10.0
9,10.0
49,0.0
76,-1.7429610964444229
77,-3.3867392543915598
78,-1.797446002729807
79,-42.101688558914816
80,-38.95101800061121
81,-1.851930909015191
2,2, 1, 2, 0,19, 0.00,60.00,Wednesday
7,0.15
8,10.0
9,10.0
49,0.0
76,-1.8230056961429737
77,-3.4339877228791957
78,-1.8285127598025084
79,-0.9723935379571031
80,-11.570096334259354
81,-1.834019823462043
2,2, 1, 2, 0,20, 0.00,60.00,Wednesday
7,0.9125000000000001
8,10.0
9,10.0
49,0.0
76,-1.7642246500817222
77,-3.3861974970769344
78,-1.743488508350608
79,34.01767852805857
80,33.26462266903745
81,-1.7227523666194937
2,2, 1, 2, 0,21, 0.00,60.00,Wednesday
7,1.4749999999999999
8,10.0
9,10.0
49,0.0
76,-1.6595737508810304
77,-3.3134522846843346
78,-1.6338684170057123
79,44.53487948547011
80,42.939406319350596
81,-1.6081630831303944
2,2, 1, 2, 0,22, 0.00,60.00,Wednesday
7,2.0125
8,10.0
9,10.0
49,0.0
76,-1.5364897815580973
77,-3.229014782531517
78,-1.51629988175622
79,44.47268622117166
80,45.3199031881401
81,-1.4961099819543426
2,2, 1, 2, 0,23, 0.00,60.00,Wednesday
7,0.825
8,10.0
9,10.0
49,0.0
76,-1.5181503841510802
77,-3.2443729316018812
78,-1.58607769478418
79,-54.35344655077192
80,-34.54398408507987
81,-1.6540050054172797
2,2, 1, 2, 0,24, 0.00,60.00,Wednesday
7,0.0
8,10.0
9,10.0
49,0.0