Program Version,EnergyPlus, Version 25.1.0-68a4a7c774, YMD=2025.08.28 16:15
1,5,Environment Title[],Latitude[deg],Longitude[deg],Time Zone[],Elevation[m]
2,8,Day of Simulation[],Month[],Day of Month[],DST Indicator[1=yes 0=no],Hour[],StartMinute[],EndMinute[],DayType
3,5,Cumulative Day of Simulation[],Month[],Day of Month[],DST Indicator[1=yes 0=no],DayType  ! When Daily Report Variables Requested
4,2,Cumulative Days of Simulation[],Month[]  ! When Monthly Report Variables Requested
5,1,Cumulative Days of Simulation[] ! When Run Period Report Variables Requested
6,1,Calendar Year of Simulation[] ! When Annual Report Variables Requested
7,1,Environment,Site Outdoor Air Drybulb Temperature [C] !Hourly
8,1,Environment,Site Total Sky Cover [] !Hourly
9,1,Environment,Site Opaque Sky Cover [] !Hourly
10,7,Environment,Site Daylight Saving Time Status [] !Daily [Value,Min,Hour,Minute,Max,Hour,Minute]
11,7,Environment,Site Day Type Index [] !Daily [Value,Min,Hour,Minute,Max,Hour,Minute]
49,1,ZONE ONE,Zone Total Internal Latent Gain Energy [J] !Hourly
50,9,TEST 352A,Other Equipment Total Heating Energy [J] !Monthly [Value,Min,Day,Hour,Minute,Max,Day,Hour,Minute]
51,9,TEST 352 MINUS,Other Equipment Total Heating Energy [J] !Monthly [Value,Min,Day,Hour,Minute,Max,Day,Hour,Minute]
52,9,ZONE ONE,Zone Other Equipment Total Heating Energy [J] !Monthly [Value,Min,Day,Hour,Minute,Max,Day,Hour,Minute]
53,7,ZN001:WALL001,Surface Inside Face Temperature [C] !Daily [Value,Min,Hour,Minute,Max,Hour,Minute]
54,7,ZN001:WALL001,Surface Outside Face Temperature [C] !Daily [Value,Min,Hour,Minute,Max,Hour,Minute]
55,7,ZN001:WALL001,Surface Inside Face Convection Heat Transfer Coefficient [W/m2-K] !Daily [Value,Min,Hour,Minute,Max,Hour,Minute]
56,7,ZN001:WALL001,Surface Outside Face Convection Heat Transfer Coefficient [W/m2-K] !Daily [Value,Min,Hour,Minute,Max,Hour,Minute]
57,7,ZN001:WALL002,Surface Inside Face Temperature [C] !Daily [Value,Min,Hour,Minute,Max,Hour,Minute]
58,7,ZN001:WALL002,Surface Outside Face Temperature [C] !Daily [Value,Min,Hour,Minute,Max,Hour,Minute]
59,7,ZN001:WALL002,Surface Inside Face Convection Heat Transfer Coefficient [W/m2-K] !Daily [Value,Min,Hour,Minute,Max,Hour,Minute]
60,7,ZN001:WALL002,Surface Outside Face Convection Heat Transfer Coefficient [W/m2-K] !Daily [Value,Min,Hour,Minute,Max,Hour,Minute]
61,7,ZN001:WALL003,Surface Inside Face Temperature [C] !Daily [Value,Min,Hour,Minute,Max,Hour,Minute]
62,7,ZN001:WALL003,Surface Outside Face Temperature [C] !Daily [Value,Min,Hour,Minute,Max,Hour,Minute]
63,7,ZN001:WALL003,Surface Inside Face Convection Heat Transfer Coefficient [W/m2-K] !Daily [Value,Min,Hour,Minute,Max,Hour,Minute]
64,7,ZN001:WALL003,Surface Outside Face Convection Heat Transfer Coefficient [W/m2-K] !Daily [Value,Min,Hour,Minute,Max,Hour,Minute]
65,7,ZN001:WALL004,Surface Inside Face Temperature [C] !Daily [Value,Min,Hour,Minute,Max,Hour,Minute]
66,7,ZN001:WALL004,Surface Outside Face Temperature [C] !Daily [Value,Min,Hour,Minute,Max,Hour,Minute]
67,7,ZN001:WALL004,Surface Inside Face Convection Heat Transfer Coefficient [W/m2-K] !Daily [Value,Min,Hour,Minute,Max,Hour,Minute]
68,7,ZN001:WALL004,Surface Outside Face Convection Heat Transfer Coefficient [W/m2-K] !Daily [Value,Min,Hour,Minute,Max,Hour,Minute]
69,7,ZN001:FLR001,Surface Inside Face Temperature [C] !Daily [Value,Min,Hour,Minute,Max,Hour,Minute]
70,7,ZN001:FLR001,Surface Outside Face Temperature [C] !Daily [Value,Min,Hour,Minute,Max,Hour,Minute]
71,7,ZN001:FLR001,Surface Inside Face Convection Heat Transfer Coefficient [W/m2-K] !Daily [Value,Min,Hour,Minute,Max,Hour,Minute]
72,7,ZN001:ROOF001,Surface Inside Face Temperature [C] !Daily [Value,Min,Hour,Minute,Max,Hour,Minute]
73,7,ZN001:ROOF001,Surface Outside Face Temperature [C] !Daily [Value,Min,Hour,Minute,Max,Hour,Minute]
74,7,ZN001:ROOF001,Surface Inside Face Convection Heat Transfer Coefficient [W/m2-K] !Daily [Value,Min,Hour,Minute,Max,Hour,Minute]
75,7,ZN001:ROOF001,Surface Outside Face Convection Heat Transfer Coefficient [W/m2-K] !Daily [Value,Min,Hour,Minute,Max,Hour,Minute]
76,1,ZONE ONE,Zone Mean Air Temperature [C] !Hourly
77,1,ZONE ONE,Zone Wetbulb Globe Temperature [C] !Hourly
78,1,ZONE ONE,Zone Operative Temperature [C] !Hourly
79,1,ZONE ONE,Zone Air Heat Balance Surface Convection Rate [W] !Hourly
80,1,ZONE ONE,Zone Air Heat Balance Air Energy Storage Rate [W] !Hourly
81,1,ZONE ONE,Zone Mean Radiant Temperature [C] !Hourly
17,11,Electricity:Facility [J] !Annual [Value,Min,Month,Day,Hour,Minute,Max,Month,Day,Hour,Minute]
End of Data Dictionary
1,DENVER CENTENNIAL  GOLDEN   N ANN HTG 99% CONDNS DB,  41.98, -87.92,  -6.00, 201.00
2,1,12,21, 0, 1, 0.00,60.00,WinterDesignDay
7,-15.5
8,6.75
9,6.75
49,0.0
76,-18.394953423018038
77,-18.394574547744277
78,-18.39370793657536
79,-0.03706120663587997
80,-0.03712182956313387
81,-18.392462450132676
2,1,12,21, 0, 2, 0.00,60.00,WinterDesignDay
7,-15.5
8,9.625
9,9.625
49,0.0
76,-18.395045213011596
77,-18.394666505763333
78,-18.39380057459709
79,-0.036579936044430994
80,-0.0366397727602059
81,-18.392555936182593
2,1,12,21, 0, 3, 0.00,60.00,WinterDesignDay
7,-15.5
8,10.0
9,10.0
49,0.0
76,-18.395135810992766
77,-18.394757907610455
78,-18.393892009076662
79,-0.03610490672636768
80,-0.036163967379454307
81,-18.39264820716056
2,1,12,21, 0, 4, 0.00,60.00,WinterDesignDay
7,-15.5
8,10.0
9,10.0
49,0.0
76,-18.39522523242113
77,-18.394848757971985
78,-18.393982255637848
79,-0.035636038003139525
80,-0.03569433263078501
81,-18.392739278854567
2,1,12,21, 0, 5, 0.00,60.00,WinterDesignDay
7,-15.5
8,10.0
9,10.0
49,0.0
76,-18.395313492556376
77,-18.394936917910595
78,-18.394071329702
79,-0.03517325022996065
80,-0.03523078874293654
81,-18.392829166847626
2,1,12,21, 0, 6, 0.00,60.00,WinterDesignDay
7,-15.5
8,10.0
9,10.0
49,0.0
76,-18.395400606460875
77,-18.39502486902789
78,-18.394159246490624
79,-0.03471646478209589
80,-0.03477325694407853
81,-18.392917886520372
2,1,12,21, 0, 7, 0.00,60.00,WinterDesignDay
7,-15.5
8,10.0
9,10.0
49,0.0
76,-18.39548658900223
77,-18.39510963446928
78,-18.39424602102798
79,-0.03426560403584089
80,-0.0343216595172951
81,-18.393005453053732
2,1,12,21, 0, 8, 0.00,60.00,WinterDesignDay
7,-15.5
8,8.75
9,8.75
49,0.0
76,-18.395571454855745
77,-18.395196571384375
78,-18.394331668143625
79,-0.033820591372696995
80,-0.033875919697097585
81,-18.39309188143151
2,1,12,21, 0, 9, 0.00,60.00,WinterDesignDay
7,-15.5
8,3.0
9,3.0
49,0.0
76,-18.39565521850691
77,-18.39527846441929
78,-18.394416202474922
79,-0.033381351163246364
80,-0.033435961730311076
81,-18.393177186442934
2,1,12,21, 0,10, 0.00,60.00,WinterDesignDay
7,-15.5
8,1.25
9,0.0
49,0.0
76,-18.395737894253838
77,-18.395364124065587
78,-18.39449963846951
79,-0.032947808737721296
80,-0.033001710837444
81,-18.393261382685186
2,1,12,21, 0,11, 0.00,60.00,WinterDesignDay
7,-15.5
8,0.75
9,0.0
49,0.0
76,-18.39581949620969
77,-18.395445391010785
78,-18.394581990387778
79,-0.032519890384427264
80,-0.03257309318321069
81,-18.393344484565866
2,1,12,21, 0,12, 0.00,60.00,WinterDesignDay
7,-15.5
8,3.75
9,1.25
49,0.0
76,-18.395900038305
77,-18.395525556181703
78,-18.39466327230524
79,-0.032097523346835466
80,-0.03215003589820016
81,-18.39342650630548
2,1,12,21, 0,13, 0.00,60.00,WinterDesignDay
7,-15.5
8,8.5
9,5.75
49,0.0
76,-18.395979534290078
77,-18.395603594491302
78,-18.394743498114973
79,-0.03168063580320313
80,-0.03173246703146199
81,-18.39350746193987
2,1,12,21, 0,14, 0.00,60.00,WinterDesignDay
7,-15.5
8,10.0
9,8.625
49,0.0
76,-18.39605799773729
77,-18.395683549158644
78,-18.39482268152993
79,-0.03126915684264375
80,-0.03132031557321506
81,-18.39358736532257
2,1,12,21, 0,15, 0.00,60.00,WinterDesignDay
7,-15.5
8,9.375
9,9.0
49,0.0
76,-18.396135442043363
77,-18.395762804820276
78,-18.39490083608529
79,-0.030863016478759775
80,-0.0309135114146556
81,-18.39366623012722
2,1,12,21, 0,16, 0.00,60.00,WinterDesignDay
7,-15.5
8,9.625
9,9.625
49,0.0
76,-18.396211880431633
77,-18.395838746039672
78,-18.39497797514075
79,-0.03046214562567684
80,-0.030511985359001063
81,-18.393744069849866
2,1,12,21, 0,17, 0.00,60.00,WinterDesignDay
7,-15.5
8,10.0
9,10.0
49,0.0
76,-18.396287325954287
77,-18.395912938474204
78,-18.395054111882782
79,-0.03006647608142199
80,-0.030115669091556885
81,-18.393820897811274
2,1,12,21, 0,18, 0.00,60.00,WinterDesignDay
7,-15.5
8,10.0
9,10.0
49,0.0
76,-18.396361791494552
77,-18.395988506029642
78,-18.395129259326872
79,-0.029675940516349808
80,-0.029724495170171866
81,-18.393896727159195
2,1,12,21, 0,19, 0.00,60.00,WinterDesignDay
7,-15.5
8,10.0
9,10.0
49,0.0
76,-18.39643528976888
77,-18.396061913658762
78,-18.395203430319746
79,-0.029290472477208507
80,-0.029338397042550583
81,-18.393971570870615
2,1,12,21, 0,20, 0.00,60.00,WinterDesignDay
7,-15.5
8,10.0
9,10.0
49,0.0
76,-18.396507833329107
77,-18.39613447504543
78,-18.395276637541553
79,-0.028910006361153595
80,-0.02895730899773483
81,-18.394045441753995
2,1,12,21, 0,21, 0.00,60.00,WinterDesignDay
7,-15.5
8,10.0
9,10.0
49,0.0
76,-18.396579434564543
77,-18.39620452209079
78,-18.395348893507975
79,-0.028534477405372627
80,-0.028581166170073023
81,-18.394118352451407
2,1,12,21, 0,22, 0.00,60.00,WinterDesignDay
7,-15.5
8,10.0
9,10.0
49,0.0
76,-18.396650105704076
77,-18.396278717111805
78,-18.395420210572404
79,-0.02816382168384335
80,-0.02820990452400179
81,-18.394190315440724
2,1,12,21, 0,23, 0.00,60.00,WinterDesignDay
7,-15.5
8,7.5
9,7.5
49,0.0
76,-18.39671985881823
77,-18.3963480378508
78,-18.395490600928
79,-0.027797976102849287
80,-0.02784346086641472
81,-18.394261343037762
2,1,12,21, 0,24, 0.00,60.00,WinterDesignDay
7,-15.5
8,4.125
9,4.125
49,0.0
76,-18.396788705821233
77,-18.396417055772595
78,-18.395560076609797
79,-0.02743687836856834
80,-0.027481772798694
81,-18.39433144739835
3,1,12,21, 0,WinterDesignDay
10,0.0,0.0, 1,15,0.0, 1,15
11,10.000000,10.0, 1,15,10.0, 1,15
53,-18.333991130775978,-18.33485219661391,24,60,-18.333037221491775, 1,15
54,-17.461193154221093,-17.46121754940796,24,60,-17.461166128727758, 1,15
55,0.5181488442543395,0.5180303543919969, 1,15,0.5182559321759277,24,60
56,7.1515212926419585,7.151520498665757,24,60,7.151522172241029, 1,15
57,-18.33084097241268,-18.33170207641366,24,60,-18.329887020976134, 1,15
58,-17.41457876951739,-17.41460260651328,24,60,-17.414552362398418, 1,15
59,0.5267903792528338,0.5266758599700841, 1,15,0.5268938799857507,24,60
60,7.416532669319765,7.416531738595878,24,60,7.416533700411285, 1,15
61,-18.33084097241268,-18.33170207641366,24,60,-18.329887020976134, 1,15
62,-17.41457876951739,-17.41460260651328,24,60,-17.414552362398418, 1,15
63,0.5267903792528338,0.5266758599700841, 1,15,0.5268938799857507,24,60
64,7.416532669319765,7.416531738595878,24,60,7.416533700411285, 1,15
65,-18.333991130775978,-18.33485219661391,24,60,-18.333037221491775, 1,15
66,-17.461193154221093,-17.46121754940796,24,60,-17.461166128727758, 1,15
67,0.5181488442543395,0.5180303543919969, 1,15,0.5182559321759277,24,60
68,7.1515212926419585,7.151520498665757,24,60,7.151522172241029, 1,15
69,-18.39940933192121,-18.400412673201888,24,60,-18.398297772299674, 1,15
70,-18.39938703146652,-18.400393660448206,24,60,-18.398271829551845, 1,15
71,0.11527805398825423,0.11399493148643264, 1,15,0.11641936374796406,24,60
72,-18.460704878611725,-18.461598879416336,24,60,-18.45971448116115, 1,15
73,-20.308503912639083,-20.308517311757292,24,60,-20.308489068726193, 1,15
74,0.6105069283057452,0.6104901061253036,24,60,0.6105253559702642, 1,15
75,8.618809924475306,8.618809573201524,24,60,8.618810313626867, 1,15
4,1,12
50,30412800.0,9999.0, 0, 0, 0,316800.0,21, 1,15
51,-30412800.0,-316800.0,21, 1,15,-9999.0, 0, 0, 0
52,0.0,0.0,21, 1,15,0.0,21, 1,15
1,DENVER CENTENNIAL  GOLDEN   N ANN CLG 1% CONDNS DB=>MWB,  41.98, -87.92,  -6.00, 201.00
2,1, 7,21, 0, 1, 0.00,60.00,SummerDesignDay
7,18.966
8,6.75
9,6.75
49,0.0
76,29.49005008050678
77,19.070939722627532
78,29.42176616939908
79,-82.44128567414882
80,-82.3410413749342
81,29.35348225829138
2,1, 7,21, 0, 2, 0.00,60.00,SummerDesignDay
7,18.244
8,9.625
9,9.625
49,0.0
76,29.247702124404178
77,18.935020945401547
78,29.17944721848042
79,-80.87146538679909
80,-81.2486516490677
81,29.11119231255666
2,1, 7,21, 0, 3, 0.00,60.00,SummerDesignDay
7,17.731
8,10.0
9,10.0
49,0.0
76,29.011053512519034
77,18.802133715416318
78,28.942939402484267
79,-79.36367209280081
80,-79.54362152092483
81,28.874825292449497
2,1, 7,21, 0, 4, 0.00,60.00,SummerDesignDay
7,17.275000000000002
8,10.0
9,10.0
49,0.0
76,28.776406387793088
77,18.669942953638024
78,28.70765897283775
79,-79.81330282438006
80,-79.7008086070554
81,28.638911557882405
2,1, 7,21, 0, 5, 0.00,60.00,SummerDesignDay
7,16.913999999999998
8,10.0
9,10.0
49,0.0
76,28.54435563548696
77,18.540406447883115
78,28.479590408256144
79,-72.74979577984361
80,-75.72443324418569
81,28.414825181025332
2,1, 7,21, 0, 6, 0.00,60.00,SummerDesignDay
7,16.990000000000002
8,10.0
9,10.0
49,0.0
76,28.506880526692278
77,18.54397728534966
78,28.524446907156808
79,57.94385590984869
80,39.613316504582755
81,28.542013287621334
2,1, 7,21, 0, 7, 0.00,60.00,SummerDesignDay
7,17.769
8,10.0
9,10.0
49,0.0
76,28.737125930595344
77,18.682234093696444
78,28.783071621780167
79,81.75378780478178
80,83.33255081480297
81,28.829017312964993
2,1, 7,21, 0, 8, 0.00,60.00,SummerDesignDay
7,19.783
8,8.75
9,8.75
49,0.0
76,28.99268040002774
77,18.832969123666544
78,29.061793532921754
79,101.38561474118521
80,95.16281924460272
81,29.130906665815765
2,1, 7,21, 0, 9, 0.00,60.00,SummerDesignDay
7,22.557
8,3.0
9,3.0
49,0.0
76,29.362831088342134
77,19.047675197764335
78,29.45481700687607
79,143.57414556384245
80,140.6578785398528
81,29.546802925410013
2,1, 7,21, 0,10, 0.00,60.00,SummerDesignDay
7,25.255000000000003
8,1.25
9,0.0
49,0.0
76,29.789805910329015
77,19.28516770458761
78,29.876196385044217
79,140.17144629963136
80,141.8438143091937
81,29.96258685975942
2,1, 7,21, 0,11, 0.00,60.00,SummerDesignDay
7,27.649
8,0.75
9,0.0
49,0.0
76,30.18154609406617
77,19.50059730821426
78,30.25643482282587
79,122.64105464367124
80,125.22921802198252
81,30.331323551585566
2,1, 7,21, 0,12, 0.00,60.00,SummerDesignDay
7,29.454
8,3.75
9,1.25
49,0.0
76,30.50546624716376
77,19.676191287868154
78,30.56370012730907
79,94.82120012897555
80,98.44211776494427
81,30.621934007454378
2,1, 7,21, 0,13, 0.00,60.00,SummerDesignDay
7,30.784
8,8.5
9,5.75
49,0.0
76,30.807085962840414
77,19.8481417371817
78,30.87908899133712
79,117.7857376597292
80,112.16047036551788
81,30.951092019833833
2,1, 7,21, 0,14, 0.00,60.00,SummerDesignDay
7,31.715
8,10.0
9,8.625
49,0.0
76,31.16726708777508
77,20.044587815008015
78,31.22740585557443
79,116.26603485075285
80,118.9793995321096
81,31.287544623373766
2,1, 7,21, 0,15, 0.00,60.00,SummerDesignDay
7,32.0
8,9.375
9,9.0
49,0.0
76,31.467551162573056
77,20.202035609540406
78,31.49778925717652
79,82.47022642376666
80,87.4713152498978
81,31.52802735177999
2,1, 7,21, 0,16, 0.00,60.00,SummerDesignDay
7,31.43
8,9.625
9,9.625
49,0.0
76,31.64445462209734
77,20.287294479397808
78,31.63255611570753
79,34.13133698392773
80,40.8451137286886
81,31.620657609317725
2,1, 7,21, 0,17, 0.00,60.00,SummerDesignDay
7,30.328
8,10.0
9,10.0
49,0.0
76,31.68439512576179
77,20.296494150082818
78,31.62953348893027
79,-3.086505665798126
80,0.2502175871911998
81,31.57467185209876
2,1, 7,21, 0,18, 0.00,60.00,SummerDesignDay
7,28.922
8,10.0
9,10.0
49,0.0
76,31.610143920428783
77,20.244240225496203
78,31.5179997306319
79,-57.4654271162633
80,-47.11325337861431
81,31.425855540835013
2,1, 7,21, 0,19, 0.00,60.00,SummerDesignDay
7,26.927
8,10.0
9,10.0
49,0.0
76,31.266544577783566
77,20.03946110026738
78,31.12616611544697
79,-181.9605632164812
80,-164.10946985999726
81,30.985787653110382
2,1, 7,21, 0,20, 0.00,60.00,SummerDesignDay
7,25.027
8,10.0
9,10.0
49,0.0
76,30.718897798419352
77,19.75216893593867
78,30.63446649030829
79,-138.93105915043202
80,-158.5366703655239
81,30.550035182197234
2,1, 7,21, 0,21, 0.00,60.00,SummerDesignDay
7,23.544999999999998
8,10.0
9,10.0
49,0.0
76,30.426040363185678
77,19.59601468335414
78,30.364499889701744
79,-79.32765075977262
80,-80.40529333308012
81,30.30295941621781
2,1, 7,21, 0,22, 0.00,60.00,SummerDesignDay
7,22.177
8,10.0
9,10.0
49,0.0
76,30.198293996978105
77,19.468731223751405
78,30.13577257400099
79,-77.31040286560376
80,-76.88352532516367
81,30.073251151023868
2,1, 7,21, 0,23, 0.00,60.00,SummerDesignDay
7,20.999000000000002
8,7.5
9,7.5
49,0.0
76,29.967745804628187
77,19.33957876734737
78,29.90383741969123
79,-77.76713293009024
80,-77.87690621911752
81,29.839929034754277
2,1, 7,21, 0,24, 0.00,60.00,SummerDesignDay
7,19.935000000000002
8,4.125
9,4.125
49,0.0
76,29.73389835912667
77,19.20804034620612
78,29.66741038755999
79,-80.60635133502828
80,-80.12233654804882
81,29.60092241599331
3,1, 7,21, 0,SummerDesignDay
10,0.0,0.0, 1,15,0.0, 1,15
11,9.000000,9.0, 1,15,9.0, 1,15
53,29.984244452366905,27.879119042177898, 5,60,32.01945928858777,15,30
54,28.49914803924787,15.349627095187639, 5,45,50.245455750898195,13,30
55,1.0027494035436728,0.33091459247113214,17,30,1.2472337189223874,13,45
56,9.78539482891619,9.648647333520382,16,30,10.18009448326814,19,45
57,30.064543335222677,27.90879771940025, 5,45,31.705182472543036,16,30
58,30.39912433152732,15.522343447346776, 5,45,52.83257553833496, 9,15
59,0.9901827906030863,0.1,17,15,1.340154772177218, 9,30
60,11.644050544741212,11.426445776815115,11,60,12.241401273817258,19,45
61,29.87024765724753,27.908786170479754, 5,45,31.705182472543036,16,30
62,25.621510016049324,15.522070653501222, 5,45,35.651849757348856,14,60
63,0.8115520243798365,0.1,17,15,1.1074069278174687, 5,60
64,11.64963690364791,11.47936814070371,19,15,11.999491912189027, 6,15
65,30.076713602164173,27.879119042177898, 5,60,32.88725845189783,16,60
66,30.852220607450608,15.349627095187639, 5,45,64.48046144739557,16,60
67,1.0112275099535963,0.2650653755902456, 9,45,1.3990889412055831,16,60
68,9.795600342788797,9.648728816558096,13,45,10.121615025393087, 6,45
69,30.041305624957047,28.975927166279373, 7,45,31.10932645678117,19,15
70,30.041284066128295,28.975927166279373, 7,60,31.10932645678117,19,30
71,0.9083248410879112,0.1,20,15,1.322551261415087, 5,60
72,30.10644366938959,28.123967376937323, 5,60,31.986645882643277,15,60
73,32.317143236300474,12.975923193064473, 5,45,60.63756169329261,13,30
74,0.804498141311912,0.12383983729286449, 7,45,1.1280781377816131,20,15
75,13.380219963373163,13.08711053617482,17,30,13.868974926574905, 6,45
4,1, 7
50,30412800.0,316800.0,21, 1,15,316800.0,21, 1,15
51,-30412800.0,-316800.0,21, 1,15,-316800.0,21, 1,15
52,0.0,0.0,21, 1,15,0.0,21, 1,15
1,RUN PERIOD 1,  41.98, -87.92,  -6.00, 201.00
2,1, 1, 1, 0, 1, 0.00,60.00,Tuesday
7,-8.2625
8,6.75
9,6.75
49,0.0
76,-4.133288533403142
77,-5.126070909176289
78,-4.263628204824933
79,-187.53299284922662
80,-153.92321261240463
81,-4.393967876246723
2,1, 1, 1, 0, 2, 0.00,60.00,Tuesday
7,-11.8875
8,9.625
9,9.625
49,0.0
76,-4.616854936694674
77,-5.4612280013145025
78,-4.690657861873038
79,-113.0411326493304
80,-142.82731306943492
81,-4.764460787051401
2,1, 1, 1, 0, 3, 0.00,60.00,Tuesday
7,-11.325
8,10.0
9,10.0
49,0.0
76,-4.794823294102453
77,-5.58721248880239
78,-4.843270005327746
79,-46.00004058558929
80,-47.11871994088201
81,-4.89171671655304
2,1, 1, 1, 0, 4, 0.00,60.00,Tuesday
7,-11.1
8,10.0
9,10.0
49,0.0
76,-4.903259878364445
77,-5.6685249350299864
78,-4.9487789441886765
79,-40.42221936832475
80,-40.38900820332573
81,-4.994298010012908
2,1, 1, 1, 0, 5, 0.00,60.00,Tuesday
7,-10.7875
8,10.0
9,10.0
49,0.0
76,-5.00187380895246
77,-5.741013541164845
78,-5.04294757533106
79,-33.932276963897706
80,-35.139344100500594
81,-5.08402134170966
2,1, 1, 1, 0, 6, 0.00,60.00,Tuesday
7,-10.6
8,10.0
9,10.0
49,0.0
76,-5.091746461647883
77,-5.808807627969588
78,-5.134303304458615
79,-37.38783954400487
80,-36.23534530786297
81,-5.1768601472693465
2,1, 1, 1, 0, 7, 0.00,60.00,Tuesday
7,-10.6
8,10.0
9,10.0
49,0.0
76,-5.190855854785324
77,-5.882856597549204
78,-5.232421629095205
79,-37.11297241764355
80,-37.623755203088855
81,-5.273987403405085
2,1, 1, 1, 0, 8, 0.00,60.00,Tuesday
7,-10.225
8,8.75
9,8.75
49,0.0
76,-5.226691128344445
77,-5.889679906423936
78,-5.20131701805358
79,51.25662228988508
80,26.216521729607418
81,-5.175942907762716
2,1, 1, 1, 0, 9, 0.00,60.00,Tuesday
7,-9.3125
8,3.0
9,3.0
49,0.0
76,-4.822254889674025
77,-5.555370898199688
78,-4.69216020416048
79,226.05560866940257
80,216.1679047148031
81,-4.562065518646935
2,1, 1, 1, 0,10, 0.00,60.00,Tuesday
7,-7.525
8,1.25
9,0.0
49,0.0
76,-4.260537585028478
77,-5.157393687624041
78,-4.199413446611206
79,176.71927192526778
80,190.88434545375597
81,-4.138289308193934
2,1, 1, 1, 0,11, 0.00,60.00,Tuesday
7,-5.6375
8,0.75
9,0.0
49,0.0
76,-3.8813126546063255
77,-4.886388191312657
78,-3.847824123157743
79,123.50123969802696
80,126.68286990537476
81,-3.81433559170916
2,1, 1, 1, 0,12, 0.00,60.00,Tuesday
7,-3.9375
8,3.75
9,1.25
49,0.0
76,-3.6399747631558252
77,-4.722450762232359
78,-3.644230290402788
79,50.39854474665433
80,63.148907692130365
81,-3.64848581764975
2,1, 1, 1, 0,13, 0.00,60.00,Tuesday
7,-2.6125
8,8.5
9,5.75
49,0.0
76,-3.607992293022629
77,-4.707056361620023
78,-3.629297169844935
79,-4.007461010206242
80,-5.765460323790849
81,-3.65060204666724
2,1, 1, 1, 0,14, 0.00,60.00,Tuesday
7,-1.5125000000000002
8,10.0
9,8.625
49,0.0
76,-3.5762658426576652
77,-4.676437051498701
78,-3.569601115642869
79,29.01378736348004
80,25.716560681642576
81,-3.5629363886280734
2,1, 1, 1, 0,15, 0.00,60.00,Tuesday
7,-1.1
8,9.375
9,9.0
49,0.0
76,-3.4947738588515245
77,-4.6210381702170755
78,-3.5035896677345644
79,17.946986049399307
80,24.15214926763774
81,-3.5124054766176047
2,1, 1, 1, 0,16, 0.00,60.00,Tuesday
7,-1.1
8,9.625
9,9.625
49,0.0
76,-3.526225141904585
77,-4.657682574536166
78,-3.5799585958134923
79,-38.4364905764411
80,-33.20229693655755
81,-3.6336920497223995
2,1, 1, 1, 0,17, 0.00,60.00,Tuesday
7,-1.1
8,10.0
9,10.0
49,0.0
76,-3.6909524705018124
77,-4.788924060395859
78,-3.7772301071605066
79,-82.38990082628449
80,-78.93924382978454
81,-3.8635077438192003
2,1, 1, 1, 0,18, 0.00,60.00,Tuesday
7,-1.4749999999999999
8,10.0
9,10.0
49,0.0
76,-3.8744620080316743
77,-4.913683130189922
78,-3.9247296403422007
79,-50.40309938301437
80,-55.37729878493485
81,-3.974997272652727
2,1, 1, 1, 0,19, 0.00,60.00,Tuesday
7,-2.0125
8,10.0
9,10.0
49,0.0
76,-3.9577765656039103
77,-4.962818527966504
78,-3.966377375575176
79,-11.390270594057434
80,-16.7295529323861
81,-3.9749781855464414
2,1, 1, 1, 0,20, 0.00,60.00,Tuesday
7,-1.5125000000000002
8,10.0
9,10.0
49,0.0
76,-3.9452729917876517
77,-4.943724382982991
78,-3.9210728723689168
79,19.400398153803597
80,15.901071690014225
81,-3.8968727529501814
2,1, 1, 1, 0,21, 0.00,60.00,Tuesday
7,-1.4749999999999999
8,10.0
9,10.0
49,0.0
76,-3.90834733287499
77,-4.929650018806682
78,-3.9219307410302577
79,-6.757259858551375
80,1.5009946366608773
81,-3.935514149185527
2,1, 1, 1, 0,22, 0.00,60.00,Tuesday
7,-1.3249999999999997
8,10.0
9,10.0
49,0.0
76,-3.9275913899518144
77,-4.936317223757184
78,-3.9121141335446836
79,11.501459389900777
80,2.9728420397592488
81,-3.896636877137552
2,1, 1, 1, 0,23, 0.00,60.00,Tuesday
7,-1.4749999999999999
8,7.5
9,7.5
49,0.0
76,-3.891462867153627
77,-4.917858147040103
78,-3.897142601740013
79,0.007377980538874063
80,6.5948396470114226
81,-3.902822336326399
2,1, 1, 1, 0,24, 0.00,60.00,Tuesday
7,-1.7
8,4.125
9,4.125
49,0.0
76,-3.9231286608933553
77,-4.94619992067792
78,-3.9413774959091716
79,-16.639201021375726
80,-17.125775924242458
81,-3.959626330924988
3,1, 1, 1, 0,Tuesday
10,0.0,0.0, 1,15,0.0, 1,15
11,3.000000,3.0, 1,15,3.0, 1,15
53,-4.039689367062697,-5.635535916750923, 8,15,-2.3144996822988384,12,30
54,-0.4266321329803617,-13.380454875526079, 1,60,24.015984228680566,11,30
55,0.8857087590933973,0.21935171024740677,24,60,1.4792588874366785,11,45
56,7.0584853182331395,1.469987999823324,21,60,13.07917717827047,11,45
57,-4.166038395309523,-5.635540623631906, 8,15,-3.174342114323436,11,30
58,-2.90176165713714,-13.377525619650173, 1,60,15.705175090232744, 9,60
59,0.7968045779333507,0.21508339914265381,24,60,1.3818714144294395, 9,45
60,6.608293778334903,1.5249923098911913,21,60,10.666679130684955,12,60
61,-4.305255142667794,-5.636715787802939, 8,15,-3.268564729137062,15,15
62,-5.532628715299851,-13.380511697480067, 1,60,1.5608320992567135,14,30
63,0.6800351105333196,0.1,11,30,1.1462009660166204, 2,15
64,6.624419358940873,1.5249479372819341,21,60,10.846559185409985,10,60
65,-4.281506149337175,-5.635535916750923, 8,15,-3.0312107228645617,15,30
66,-5.099957874196202,-13.380454875526043, 1,60,5.528464466904866,15,30
67,0.7134070020205711,0.21935171592134053,24,60,1.146190022292824, 2,15
68,7.123079233655958,1.4699662291147744,21,60,13.545150854224332,10,60
69,-4.247486527575643,-4.834172038077201, 8,45,-3.9335182202483088,23,30
70,-4.247469787914241,-4.834172038077201, 8,60,-3.9335182202483088,23,45
71,0.6718115625740947,0.1, 1,15,1.238968676008466, 3,30
72,-4.272503160963066,-5.502459897206923, 8,15,-3.3501122938256565,15,15
73,-5.831647261730435,-15.66352306469867, 1,60,6.991557820835741,12,30
74,0.6678782008665705,0.1404623221280503,21,30,1.1921083430674895, 2,15
75,8.029541012872262,1.260501857110734,21,60,15.0919385512669,10,60
2,2, 1, 2, 0, 1, 0.00,60.00,Wednesday
7,-3.0749999999999997
8,2.375
9,2.375
49,0.0
76,-4.001569855408293
77,-5.012933774683583
78,-4.048756738833363
79,-52.25589717699603
80,-44.89837335970085
81,-4.095943622258435
2,2, 1, 2, 0, 2, 0.00,60.00,Wednesday
7,-3.2124999999999995
8,3.25
9,2.625
49,0.0
76,-4.113476645811622
77,-5.084646728024991
78,-4.1234002512730195
79,-12.27353714060806
80,-23.52493046075606
81,-4.133323856734416
2,2, 1, 2, 0, 3, 0.00,60.00,Wednesday
7,-3.1125
8,2.75
9,2.375
49,0.0
76,-4.121803769952818
77,-5.094050803837403
78,-4.136150219790068
79,-10.329492172533385
80,-5.4836391876510255
81,-4.1504966696273184
2,2, 1, 2, 0, 4, 0.00,60.00,Wednesday
7,-2.9875
8,5.75
9,4.5
49,0.0
76,-4.1565875140549196
77,-5.119483344454696
78,-4.165943394397829
79,-8.053268391084025
80,-10.977083789868233
81,-4.175299274740738
2,2, 1, 2, 0, 5, 0.00,60.00,Wednesday
7,-1.7374999999999998
8,9.25
9,7.25
49,0.0
76,-4.1292030262621475
77,-5.0845882151392665
78,-4.089905906708216
79,32.96213893150958
80,26.570829432766946
81,-4.050608787154284
2,2, 1, 2, 0, 6, 0.00,60.00,Wednesday
7,-1.1
8,10.0
9,8.0
49,0.0
76,-4.032933014407681
77,-5.01604630149642
78,-4.002905892872132
79,29.067953247145862
80,33.080387488005684
81,-3.9728787713365823
2,2, 1, 2, 0, 7, 0.00,60.00,Wednesday
7,-0.7875000000000001
8,10.0
9,9.25
49,0.0
76,-3.967230877248305
77,-4.966787374956851
78,-3.941507313860791
79,26.568698929732886
80,24.983224738720047
81,-3.915783750473276
2,2, 1, 2, 0, 8, 0.00,60.00,Wednesday
7,-0.6
8,10.0
9,10.0
49,0.0
76,-3.8863916910631717
77,-4.905364921613117
78,-3.852671558543308
79,38.25975503751563
80,35.67502529905613
81,-3.8189514260234443
2,2, 1, 2, 0, 9, 0.00,60.00,Wednesday
7,-0.225
8,10.0
9,10.0
49,0.0
76,-3.7324912037350177
77,-4.781567748799578
78,-3.667616610597608
79,83.49913304207408
80,76.21143729367283
81,-3.602742017460197
2,2, 1, 2, 0,10, 0.00,60.00,Wednesday
7,0.375
8,10.0
9,10.0
49,0.0
76,-3.448430749843921
77,-4.568185035190172
78,-3.3739303628967514
79,117.64576562945328
80,118.73874552778706
81,-3.2994299759495824
2,2, 1, 2, 0,11, 0.00,60.00,Wednesday
7,1.2874999999999999
8,10.0
9,10.0
49,0.0
76,-3.170450618263175
77,-4.370864913439435
78,-3.1124930069447405
79,100.90808896137418
80,99.45038708785569
81,-3.054535395626307
2,2, 1, 2, 0,12, 0.00,60.00,Wednesday
7,1.7
8,10.0
9,10.0
49,0.0
76,-2.86509619783829
77,-4.147104350309474
78,-2.7959989432549963
79,128.28418101849866
80,125.97769037590376
81,-2.7269016886717026
2,2, 1, 2, 0,13, 0.00,60.00,Wednesday
7,1.7
8,10.0
9,10.0
49,0.0
76,-2.49549923284654
77,-3.8814147692326806
78,-2.4219653106510037
79,148.11261242256782
80,146.70859081275563
81,-2.348431388455467
2,2, 1, 2, 0,14, 0.00,60.00,Wednesday
7,0.6375
8,10.0
9,10.0
49,0.0
76,-2.266970803061271
77,-3.7502669803361863
78,-2.2952732505194935
79,-4.1825679200937795
80,22.67946126529663
81,-2.323575697977716
2,2, 1, 2, 0,15, 0.00,60.00,Wednesday
7,-0.375
8,10.0
9,10.0
49,0.0
76,-2.3718758943286744
77,-3.836113620754387
78,-2.42146568579024
79,-46.38353516733349
80,-49.5379820838006
81,-2.4710554772518054
2,2, 1, 2, 0,16, 0.00,60.00,Wednesday
7,0.15
8,10.0
9,10.0
49,0.0
76,-2.5000110228522847
77,-3.9331808020021635
78,-2.5517418569505708
79,-43.5975171115575
80,-46.288436632270354
81,-2.6034726910488573
2,2, 1, 2, 0,17, 0.00,60.00,Wednesday
7,0.6
8,10.0
9,10.0
49,0.0
76,-2.591271143369431
77,-3.9963746785055454
78,-2.628166391921855
79,-27.243121258022473
80,-28.709628166375023
81,-2.665061640474279
2,2, 1, 2, 0,18, 0.00,60.00,Wednesday
7,-0.15
8,10.0
9,10.0
49,0.0
76,-2.650745720454844
77,-4.03917127194959
78,-2.685880309901425
79,-23.69916263319617
80,-21.58099838384385
81,-2.7210148993480052
2,2, 1, 2, 0,19, 0.00,60.00,Wednesday
7,0.15
8,10.0
9,10.0
49,0.0
76,-2.696767583604925
77,-4.067066233640797
78,-2.6995837797539384
79,0.5512222551546686
80,-6.188851964586816
81,-2.702399975902951
2,2, 1, 2, 0,20, 0.00,60.00,Wednesday
7,0.9125000000000001
8,10.0
9,10.0
49,0.0
76,-2.6550417403558746
77,-4.033074437105772
78,-2.63779818591933
79,23.803420577575352
80,23.15283077601384
81,-2.6205546314827854
2,2, 1, 2, 0,21, 0.00,60.00,Wednesday
7,1.4749999999999999
8,10.0
9,10.0
49,0.0
76,-2.581689551479725
77,-3.9821561817927424
78,-2.559188781576844
79,31.32033443429343
80,30.230525003348376
81,-2.536688011673964
2,2, 1, 2, 0,22, 0.00,60.00,Wednesday
7,2.0125
8,10.0
9,10.0
49,0.0
76,-2.4943664391740814
77,-3.9217130441726944
78,-2.473959450959641
79,32.13952600360276
80,32.611074285585275
81,-2.4535524627452
2,2, 1, 2, 0,23, 0.00,60.00,Wednesday
7,0.825
8,10.0
9,10.0
49,0.0
76,-2.468505316489037
77,-3.9242362949225846
78,-2.5123436677886417
79,-27.895575737112388
80,-15.562273442552296
81,-2.5561820190882467
2,2, 1, 2, 0,24, 0.00,60.00,Wednesday
7,0.0
8,10.0
9,10.0
49,0.0
76,-2.558574437928568
77,-3.982913837043723
78,-2.575619867502975
79,-14.219228629049525
80,-23.963139021302364