Program Version,EnergyPlus, Version 25.1.0-68a4a7c774, YMD=2025.08.28 15:55
1,5,Environment Title[],Latitude[deg],Longitude[deg],Time Zone[],Elevation[m]
2,8,Day of Simulation[],Month[],Day of Month[],DST Indicator[1=yes 0=no],Hour[],StartMinute[],EndMinute[],DayType
3,5,Cumulative Day of Simulation[],Month[],Day of Month[],DST Indicator[1=yes 0=no],DayType  ! When Daily Report Variables Requested
4,2,Cumulative Days of Simulation[],Month[]  ! When Monthly Report Variables Requested
5,1,Cumulative Days of Simulation[] ! When Run Period Report Variables Requested
6,1,Calendar Year of Simulation[] ! When Annual Report Variables Requested
7,1,Environment,Site Outdoor Air Drybulb Temperature [C] !Hourly
8,1,Environment,Site Total Sky Cover [] !Hourly
9,1,Environment,Site Opaque Sky Cover [] !Hourly
10,7,Environment,Site Daylight Saving Time Status [] !Daily [Value,Min,Hour,Minute,Max,Hour,Minute]
11,7,Environment,Site Day Type Index [] !Daily [Value,Min,Hour,Minute,Max,Hour,Minute]
49,1,ZONE ONE,Zone Total Internal Latent Gain Energy [J] !Hourly
50,9,TEST 352A,Other Equipment Total Heating Energy [J] !Monthly [Value,Min,Day,Hour,Minute,Max,Day,Hour,Minute]
51,9,TEST 352 MINUS,Other Equipment Total Heating Energy [J] !Monthly [Value,Min,Day,Hour,Minute,Max,Day,Hour,Minute]
52,9,ZONE ONE,Zone Other Equipment Total Heating Energy [J] !Monthly [Value,Min,Day,Hour,Minute,Max,Day,Hour,Minute]
53,7,ZN001:WALL001,Surface Inside Face Temperature [C] !Daily [Value,Min,Hour,Minute,Max,Hour,Minute]
54,7,ZN001:WALL001,Surface Outside Face Temperature [C] !Daily [Value,Min,Hour,Minute,Max,Hour,Minute]
55,7,ZN001:WALL001,Surface Inside Face Convection Heat Transfer Coefficient [W/m2-K] !Daily [Value,Min,Hour,Minute,Max,Hour,Minute]
56,7,ZN001:WALL001,Surface Outside Face Convection Heat Transfer Coefficient [W/m2-K] !Daily [Value,Min,Hour,Minute,Max,Hour,Minute]
57,7,ZN001:WALL002,Surface Inside Face Temperature [C] !Daily [Value,Min,Hour,Minute,Max,Hour,Minute]
58,7,ZN001:WALL002,Surface Outside Face Temperature [C] !Daily [Value,Min,Hour,Minute,Max,Hour,Minute]
59,7,ZN001:WALL002,Surface Inside Face Convection Heat Transfer Coefficient [W/m2-K] !Daily [Value,Min,Hour,Minute,Max,Hour,Minute]
60,7,ZN001:WALL002,Surface Outside Face Convection Heat Transfer Coefficient [W/m2-K] !Daily [Value,Min,Hour,Minute,Max,Hour,Minute]
61,7,ZN001:WALL003,Surface Inside Face Temperature [C] !Daily [Value,Min,Hour,Minute,Max,Hour,Minute]
62,7,ZN001:WALL003,Surface Outside Face Temperature [C] !Daily [Value,Min,Hour,Minute,Max,Hour,Minute]
63,7,ZN001:WALL003,Surface Inside Face Convection Heat Transfer Coefficient [W/m2-K] !Daily [Value,Min,Hour,Minute,Max,Hour,Minute]
64,7,ZN001:WALL003,Surface Outside Face Convection Heat Transfer Coefficient [W/m2-K] !Daily [Value,Min,Hour,Minute,Max,Hour,Minute]
65,7,ZN001:WALL004,Surface Inside Face Temperature [C] !Daily [Value,Min,Hour,Minute,Max,Hour,Minute]
66,7,ZN001:WALL004,Surface Outside Face Temperature [C] !Daily [Value,Min,Hour,Minute,Max,Hour,Minute]
67,7,ZN001:WALL004,Surface Inside Face Convection Heat Transfer Coefficient [W/m2-K] !Daily [Value,Min,Hour,Minute,Max,Hour,Minute]
68,7,ZN001:WALL004,Surface Outside Face Convection Heat Transfer Coefficient [W/m2-K] !Daily [Value,Min,Hour,Minute,Max,Hour,Minute]
69,7,ZN001:FLR001,Surface Inside Face Temperature [C] !Daily [Value,Min,Hour,Minute,Max,Hour,Minute]
70,7,ZN001:FLR001,Surface Outside Face Temperature [C] !Daily [Value,Min,Hour,Minute,Max,Hour,Minute]
71,7,ZN001:FLR001,Surface Inside Face Convection Heat Transfer Coefficient [W/m2-K] !Daily [Value,Min,Hour,Minute,Max,Hour,Minute]
72,7,ZN001:ROOF001,Surface Inside Face Temperature [C] !Daily [Value,Min,Hour,Minute,Max,Hour,Minute]
73,7,ZN001:ROOF001,Surface Outside Face Temperature [C] !Daily [Value,Min,Hour,Minute,Max,Hour,Minute]
74,7,ZN001:ROOF001,Surface Inside Face Convection Heat Transfer Coefficient [W/m2-K] !Daily [Value,Min,Hour,Minute,Max,Hour,Minute]
75,7,ZN001:ROOF001,Surface Outside Face Convection Heat Transfer Coefficient [W/m2-K] !Daily [Value,Min,Hour,Minute,Max,Hour,Minute]
76,1,ZONE ONE,Zone Mean Air Temperature [C] !Hourly
77,1,ZONE ONE,Zone Wetbulb Globe Temperature [C] !Hourly
78,1,ZONE ONE,Zone Operative Temperature [C] !Hourly
79,1,ZONE ONE,Zone Air Heat Balance Surface Convection Rate [W] !Hourly
80,1,ZONE ONE,Zone Air Heat Balance Air Energy Storage Rate [W] !Hourly
81,1,ZONE ONE,Zone Mean Radiant Temperature [C] !Hourly
17,11,Electricity:Facility [J] !Annual [Value,Min,Month,Day,Hour,Minute,Max,Month,Day,Hour,Minute]
End of Data Dictionary
1,DENVER CENTENNIAL  GOLDEN   N ANN HTG 99% CONDNS DB,  41.98, -87.92,  -6.00, 201.00
2,1,12,21, 0, 1, 0.00,60.00,WinterDesignDay
7,-15.5
8,6.75
9,6.75
49,0.0
76,-18.14528613452633
77,-18.144869587456565
78,-18.14390900048467
79,-0.027788331131608057
80,-0.027847882420414437
81,-18.142531866443015
2,1,12,21, 0, 2, 0.00,60.00,WinterDesignDay
7,-15.5
8,9.625
9,9.625
49,0.0
76,-18.14535488645184
77,-18.144938498727928
78,-18.143978627904936
79,-0.027316661603825843
80,-0.02737520326269182
81,-18.142602369358038
2,1,12,21, 0, 3, 0.00,60.00,WinterDesignDay
7,-15.5
8,10.0
9,10.0
49,0.0
76,-18.14542247137591
77,-18.14500483584409
78,-18.144047073004444
79,-0.026852988537824363
80,-0.02691053764910534
81,-18.14267167463298
2,1,12,21, 0, 4, 0.00,60.00,WinterDesignDay
7,-15.5
8,10.0
9,10.0
49,0.0
76,-18.14548890908439
77,-18.145074816479777
78,-18.14411435584523
79,-0.02639717671934294
80,-0.026453750063051645
81,-18.14273980260607
2,1,12,21, 0, 5, 0.00,60.00,WinterDesignDay
7,-15.5
8,10.0
9,10.0
49,0.0
76,-18.145554219028533
77,-18.145138077273096
78,-18.14418049614947
79,-0.025949093214046037
80,-0.026004707295022824
81,-18.142806773270408
2,1,12,21, 0, 6, 0.00,60.00,WinterDesignDay
7,-15.5
8,10.0
9,10.0
49,0.0
76,-18.145618420330607
77,-18.14520058326206
78,-18.144245513305194
79,-0.025508607323420307
80,-0.02556327835798388
81,-18.142872606279774
2,1,12,21, 0, 7, 0.00,60.00,WinterDesignDay
7,-15.5
8,10.0
9,10.0
49,0.0
76,-18.145681531789492
77,-18.145262758070732
78,-18.14430942637194
79,-0.025075590530162728
80,-0.02512933448432339
81,-18.142937320954392
2,1,12,21, 0, 8, 0.00,60.00,WinterDesignDay
7,-15.5
8,8.75
9,8.75
49,0.0
76,-18.145743571886022
77,-18.14532463630941
78,-18.144372254086306
79,-0.024649916496118696
80,-0.024702749046691622
81,-18.14300093628659
2,1,12,21, 0, 9, 0.00,60.00,WinterDesignDay
7,-15.5
8,3.0
9,3.0
49,0.0
76,-18.14580455878839
77,-18.14538577660683
78,-18.14443401486736
79,-0.02423146100104523
80,-0.024283397566983424
81,-18.143063470946338
2,1,12,21, 0,10, 0.00,60.00,WinterDesignDay
7,-15.5
8,1.25
9,0.0
49,0.0
76,-18.145864510357423
77,-18.14544663129096
78,-18.144494726822078
79,-0.023820101914065805
80,-0.023871157663691564
81,-18.143124943286733
2,1,12,21, 0,11, 0.00,60.00,WinterDesignDay
7,-15.5
8,0.75
9,0.0
49,0.0
76,-18.145923444151713
77,-18.14550698225319
78,-18.144554407750533
79,-0.023415719158032644
80,-0.02346590899070327
81,-18.14318537134936
2,1,12,21, 0,12, 0.00,60.00,WinterDesignDay
7,-15.5
8,3.75
9,1.25
49,0.0
76,-18.145981377432715
77,-18.14556680575353
78,-18.14461307515115
79,-0.02301819468421007
80,-0.023067533254512333
81,-18.143244772869576
2,1,12,21, 0,13, 0.00,60.00,WinterDesignDay
7,-15.5
8,8.5
9,5.75
49,0.0
76,-18.14603832716979
77,-18.145626553849404
78,-18.14467074622575
79,-0.022627412425396898
80,-0.02267591414911993
81,-18.1433031652817
2,1,12,21, 0,14, 0.00,60.00,WinterDesignDay
7,-15.5
8,10.0
9,8.625
49,0.0
76,-18.146094310045058
77,-18.14567898959934
78,-18.144727437884583
79,-0.02224325826869622
80,-0.022290937302401705
81,-18.143360565724105
2,1,12,21, 0,15, 0.00,60.00,WinterDesignDay
7,-15.5
8,9.375
9,9.0
49,0.0
76,-18.14614934245828
77,-18.145735381177456
78,-18.144783166751267
79,-0.021865620028250543
80,-0.021912490298447045
81,-18.14341699104426
2,1,12,21, 0,16, 0.00,60.00,WinterDesignDay
7,-15.5
8,9.625
9,9.625
49,0.0
76,-18.146203440531615
77,-18.14579162534162
78,-18.14483794916762
79,-0.021494387400859072
80,-0.021540462607323146
81,-18.143472457803625
2,1,12,21, 0,17, 0.00,60.00,WinterDesignDay
7,-15.5
8,10.0
9,10.0
49,0.0
76,-18.14625662011427
77,-18.145842625924864
78,-18.144891801198405
79,-0.021129451946471534
80,-0.02117474554247517
81,-18.14352698228254
2,1,12,21, 0,18, 0.00,60.00,WinterDesignDay
7,-15.5
8,10.0
9,10.0
49,0.0
76,-18.146308896787126
77,-18.145896155093684
78,-18.144944738636053
79,-0.020770707051530835
80,-0.020815232274974463
81,-18.14358058048498
2,1,12,21, 0,19, 0.00,60.00,WinterDesignDay
7,-15.5
8,10.0
9,10.0
49,0.0
76,-18.14636028586726
77,-18.145949025657423
78,-18.144996777005247
79,-0.020418047904026793
80,-0.020461817768037766
81,-18.143633268143233
2,1,12,21, 0,20, 0.00,60.00,WinterDesignDay
7,-15.5
8,10.0
9,10.0
49,0.0
76,-18.146410802412376
77,-18.145996997538298
78,-18.145047931567433
79,-0.02007137145246185
80,-0.020114398744124927
81,-18.1436850607225
2,1,12,21, 0,21, 0.00,60.00,WinterDesignDay
7,-15.5
8,10.0
9,10.0
49,0.0
76,-18.14646046122518
77,-18.146048593525556
78,-18.145098217325305
79,-0.01973057638624942
80,-0.01977287368412509
81,-18.14373597342544
2,1,12,21, 0,22, 0.00,60.00,WinterDesignDay
7,-15.5
8,10.0
9,10.0
49,0.0
76,-18.146509276857707
77,-18.146098073704447
78,-18.145147649027166
79,-0.019395563101100244
80,-0.01943714277240574
81,-18.14378602119662
2,1,12,21, 0,23, 0.00,60.00,WinterDesignDay
7,-15.5
8,7.5
9,7.5
49,0.0
76,-18.146557263615527
77,-18.146145305932425
78,-18.145196241171213
79,-0.019066233676861
80,-0.019107107873305322
81,-18.143835218726903
2,1,12,21, 0,24, 0.00,60.00,WinterDesignDay
7,-15.5
8,4.125
9,4.125
49,0.0
76,-18.146604435561887
77,-18.146193703326524
78,-18.145244008009804
79,-0.018742491847485443
80,-0.018782672513636727
81,-18.143883580457718
3,1,12,21, 0,WinterDesignDay
10,0.0,0.0, 1,15,0.0, 1,15
11,10.000000,10.0, 1,15,10.0, 1,15
53,-18.072261878942466,-18.07285439232249,24,60,-18.071584381135867, 1,15
54,-17.418355106693486,-17.41838088833442,24,60,-17.41832562724165, 1,15
55,0.5491693133816046,0.5490471832772367, 1,15,0.5492762083853198,24,60
56,7.4163859688559315,7.416384964821683,24,60,7.416387116916726, 1,15
57,-18.072261878942466,-18.07285439232249,24,60,-18.071584381135867, 1,15
58,-17.418355106693486,-17.41838088833442,24,60,-17.41832562724165, 1,15
59,0.5491693133816046,0.5490471832772367, 1,15,0.5492762083853198,24,60
60,7.4163859688559315,7.416384964821683,24,60,7.416387116916726, 1,15
61,-18.0770073409503,-18.077599790992473,24,60,-18.07632991544452, 1,15
62,-17.46438901362468,-17.46441538585916,24,60,-17.46435885887205, 1,15
63,0.5371240320400683,0.5369961729624336, 1,15,0.537235939295268,24,60
64,7.151417795348245,7.151416939072423,24,60,7.1514187744573015, 1,15
65,-18.0770073409503,-18.077599790992473,24,60,-18.07632991544452, 1,15
66,-17.46438901362468,-17.46441538585916,24,60,-17.46435885887205, 1,15
67,0.5371240320400683,0.5369961729624336, 1,15,0.537235939295268,24,60
68,7.151417795348245,7.151416939072423,24,60,7.1514187744573015, 1,15
69,-18.150165045257072,-18.150900868250243,24,60,-18.149323652341366, 1,15
70,-18.150148404959086,-18.15088738713143,24,60,-18.14930339964431, 1,15
71,0.1223638924743339,0.12122912924261009, 1,15,0.12334435861123788,24,60
72,-18.2186736592842,-18.21931153510396,24,60,-18.217944290567893, 1,15
73,-20.30479931021784,-20.304808815449576,24,60,-20.304788441606128, 1,15
74,0.6343665018888945,0.6343580219930969, 1,15,0.6343737788685392,24,60
75,8.618906766043404,8.618906516392627,24,60,8.618907051503138, 1,15
4,1,12
50,30412800.0,9999.0, 0, 0, 0,316800.0,21, 1,15
51,-30412800.0,-316800.0,21, 1,15,-9999.0, 0, 0, 0
52,0.0,0.0,21, 1,15,0.0,21, 1,15
1,DENVER CENTENNIAL  GOLDEN   N ANN CLG 1% CONDNS DB=>MWB,  41.98, -87.92,  -6.00, 201.00
2,1, 7,21, 0, 1, 0.00,60.00,SummerDesignDay
7,18.966
8,6.75
9,6.75
49,0.0
76,28.967800470050083
77,18.7734079264484
78,28.885009443435873
79,-105.45418673824092
80,-105.38755201389799
81,28.80221841682166
2,1, 7,21, 0, 2, 0.00,60.00,SummerDesignDay
7,18.244
8,9.625
9,9.625
49,0.0
76,28.65924544535715
77,18.599837702548175
78,28.57677469919608
79,-102.81776915997175
80,-103.39346695930567
81,28.494303953035008
2,1, 7,21, 0, 3, 0.00,60.00,SummerDesignDay
7,17.731
8,10.0
9,10.0
49,0.0
76,28.359725334602956
77,18.431059530435547
78,28.27767092340434
79,-100.40329113477864
80,-100.70039363715289
81,28.195616512205724
2,1, 7,21, 0, 4, 0.00,60.00,SummerDesignDay
7,17.275000000000002
8,10.0
9,10.0
49,0.0
76,28.06400507610988
77,18.263812438095393
78,27.98138922387269
79,-100.66336786453476
80,-100.56388369075272
81,27.898773371635503
2,1, 7,21, 0, 5, 0.00,60.00,SummerDesignDay
7,16.913999999999998
8,10.0
9,10.0
49,0.0
76,27.773534651737855
77,18.10118579215703
78,27.69688326553549
79,-89.40707485309682
80,-94.05650998116786
81,27.620231879333126
2,1, 7,21, 0, 6, 0.00,60.00,SummerDesignDay
7,16.990000000000002
8,10.0
9,10.0
49,0.0
76,27.768992550179757
77,18.132238596118565
78,27.80444043599189
79,97.74353228658748
80,72.84138375790363
81,27.839888321804025
2,1, 7,21, 0, 7, 0.00,60.00,SummerDesignDay
7,17.769
8,10.0
9,10.0
49,0.0
76,28.112098201126088
77,18.33324059337208
78,28.170275189803753
79,113.66305001786819
80,117.496526089839
81,28.22845217848142
2,1, 7,21, 0, 8, 0.00,60.00,SummerDesignDay
7,19.783
8,8.75
9,8.75
49,0.0
76,28.456432269553993
77,18.530092051921415
78,28.52261774120972
79,134.36545517891898
80,126.66316525091449
81,28.588803212865454
2,1, 7,21, 0, 9, 0.00,60.00,SummerDesignDay
7,22.557
8,3.0
9,3.0
49,0.0
76,28.93062195369232
77,18.802646620119113
78,29.015065325691545
79,178.14230737714246
80,175.9782175367775
81,29.099508697690766
2,1, 7,21, 0,10, 0.00,60.00,SummerDesignDay
7,25.255000000000003
8,1.25
9,0.0
49,0.0
76,29.445213860808707
77,19.090449768130345
78,29.52581724261125
79,165.37095857268065
80,168.18780873457837
81,29.606420624413786
2,1, 7,21, 0,11, 0.00,60.00,SummerDesignDay
7,27.649
8,0.75
9,0.0
49,0.0
76,29.900999756716143
77,19.342199347111247
78,29.970226366105642
79,140.8949310628971
80,144.36682173874414
81,30.03945297549514
2,1, 7,21, 0,12, 0.00,60.00,SummerDesignDay
7,29.454
8,3.75
9,1.25
49,0.0
76,30.265274342927245
77,19.540169196481784
78,30.316341491333066
79,104.12389056740734
80,108.73968353470674
81,30.367408639738883
2,1, 7,21, 0,13, 0.00,60.00,SummerDesignDay
7,30.784
8,8.5
9,5.75
49,0.0
76,30.619310407947125
77,19.74481850265198
78,30.695088551745073
79,149.14963444988547
80,139.29442124940076
81,30.770866695543027
2,1, 7,21, 0,14, 0.00,60.00,SummerDesignDay
7,31.715
8,10.0
9,8.625
49,0.0
76,31.089145728435035
77,20.00134869515231
78,31.149670639915136
79,154.45076976306524
80,157.595391607198
81,31.210195551395238
2,1, 7,21, 0,15, 0.00,60.00,SummerDesignDay
7,32.0
8,9.375
9,9.0
49,0.0
76,31.492862360545523
77,20.213443043678833
78,31.514438527368856
79,112.53884632037506
80,118.86509939140245
81,31.53601469419219
2,1, 7,21, 0,16, 0.00,60.00,SummerDesignDay
7,31.43
8,9.625
9,9.625
49,0.0
76,31.740803147702515
77,20.334498608553716
78,31.708683039719464
79,51.110280331344526
80,59.65431113247879
81,31.676562931736413
2,1, 7,21, 0,17, 0.00,60.00,SummerDesignDay
7,30.328
8,10.0
9,10.0
49,0.0
76,31.817128127331713
77,20.36118222228871
78,31.733346411586066
79,5.728895018725257
80,9.776857241394987
81,31.649564695840418
2,1, 7,21, 0,18, 0.00,60.00,SummerDesignDay
7,28.922
8,10.0
9,10.0
49,0.0
76,31.74188920417192
77,20.30955765610157
78,31.62464270112003
79,-70.42824361924028
80,-56.20599781385309
81,31.507396198068147
2,1, 7,21, 0,19, 0.00,60.00,SummerDesignDay
7,26.927
8,10.0
9,10.0
49,0.0
76,31.294423418328606
77,20.043040441897197
78,31.11457765244242
79,-246.0171251582558
80,-219.75002686946573
81,30.934731886556236
2,1, 7,21, 0,20, 0.00,60.00,SummerDesignDay
7,25.027
8,10.0
9,10.0
49,0.0
76,30.550453787672048
77,19.65236745967504
78,30.44587364764892
79,-185.3224652178267
80,-213.7773863947354
81,30.34129350762579
2,1, 7,21, 0,21, 0.00,60.00,SummerDesignDay
7,23.544999999999998
8,10.0
9,10.0
49,0.0
76,30.168521826011887
77,19.44840942012044
78,30.09365847121
79,-102.1074530271752
80,-103.3476687083294
81,30.018795116408107
2,1, 7,21, 0,22, 0.00,60.00,SummerDesignDay
7,22.177
8,10.0
9,10.0
49,0.0
76,29.87546784980007
77,19.284303522884194
78,29.799248256871465
79,-99.72749356620662
80,-99.16772270158259
81,29.72302866394286
2,1, 7,21, 0,23, 0.00,60.00,SummerDesignDay
7,20.999000000000002
8,7.5
9,7.5
49,0.0
76,29.578834973262637
77,19.1178421381115
78,29.5010842508228
79,-99.95594377408146
80,-100.16817284390888
81,29.42333352838297
2,1, 7,21, 0,24, 0.00,60.00,SummerDesignDay
7,19.935000000000002
8,4.125
9,4.125
49,0.0
76,29.278888841264195
77,18.948755042506136
78,29.19808430627713
79,-103.47231491788351
80,-102.87234873399876
81,29.117279771290068
3,1, 7,21, 0,SummerDesignDay
10,0.0,0.0, 1,15,0.0, 1,15
11,9.000000,9.0, 1,15,9.0, 1,15
53,29.595362553090528,26.87020302903585, 5,60,32.21840984606033,15,30
54,28.07168876145022,15.628612983478037, 5,45,48.26211625984854,13,30
55,1.1143162923443217,0.5099149171985359,17,30,1.376632402100386,13,45
56,11.659909171633698,11.42618698107136,14,45,12.260113398066997,19,45
57,29.744060143633334,26.8930623744106, 5,45,31.80542767604884,16,30
58,30.39069034064501,15.629170791369877, 5,45,52.61318063728451, 9,15
59,1.1132563892705025,0.35119591667275574,17,15,1.519615113431514, 9,30
60,11.649736945047913,11.426544007914618,11,60,12.260113398064124,19,45
61,29.462609933114944,26.883357659658138, 5,45,31.870795671873513,18,15
62,25.864875157910692,15.472189406540547, 5,45,36.098051619777095,18,30
63,0.9045911645224355,0.14220090621394418,17,60,1.241018799100336, 5,15
64,9.76258366202793,9.65139445772038, 7,30,10.12755966470769, 6,15
65,29.75991862136159,26.861793666070987, 5,60,33.598142094760384,16,60
66,30.843385462802456,15.471865464575929, 5,45,64.18066983686201,16,60
67,1.138499584357325,0.20723945340219013,10,15,1.598112594793154,16,60
68,9.800278680112092,9.648655390984468,13,45,10.230585363709858, 6,45
69,29.68995041629394,28.360661613792196, 7,45,31.054300720942486,19,15
70,29.68993261146156,28.360661613792196, 7,60,31.054300720942486,19,30
71,0.9866299637094896,0.18068570630046507, 8,45,1.4375590074221307, 5,60
72,29.76681647827955,27.356210514007582, 5,60,32.00318962182196,16,15
73,32.313952463688175,12.968293547865303, 5,45,60.635646540893724,13,30
74,0.802858588539704,0.1, 7,30,1.1829413687909665,20,15
75,13.380120765696086,13.087110521130953,17,30,13.867837980234542, 6,45
4,1, 7
50,30412800.0,316800.0,21, 1,15,316800.0,21, 1,15
51,-30412800.0,-316800.0,21, 1,15,-316800.0,21, 1,15
52,0.0,0.0,21, 1,15,0.0,21, 1,15
1,RUN PERIOD 1,  41.98, -87.92,  -6.00, 201.00
2,1, 1, 1, 0, 1, 0.00,60.00,Tuesday
7,-8.2625
8,6.75
9,6.75
49,0.0
76,-3.9168968763569425
77,-4.975520275796766
78,-4.079533116254779
79,-255.48303907609468
80,-210.40363576542788
81,-4.2421693561526155
2,1, 1, 1, 0, 2, 0.00,60.00,Tuesday
7,-11.8875
8,9.625
9,9.625
49,0.0
76,-4.556173357842945
77,-5.420389103952842
78,-4.6446202976652975
79,-142.48954988325943
80,-183.311424184551
81,-4.733067237487651
2,1, 1, 1, 0, 3, 0.00,60.00,Tuesday
7,-11.325
8,10.0
9,10.0
49,0.0
76,-4.777453958055622
77,-5.577453714257496
78,-4.836632246873718
79,-57.18770460694317
80,-58.29279972549423
81,-4.895810535691814
2,1, 1, 1, 0, 4, 0.00,60.00,Tuesday
7,-11.1
8,10.0
9,10.0
49,0.0
76,-4.914794417044204
77,-5.680500156436123
78,-4.971453576557217
79,-52.57607735570227
80,-52.16363431151014
81,-5.028112736070231
2,1, 1, 1, 0, 5, 0.00,60.00,Tuesday
7,-10.7875
8,10.0
9,10.0
49,0.0
76,-5.042221912270957
77,-5.774093295222478
78,-5.092797406209236
79,-43.15481506276372
80,-44.941781710578425
81,-5.143372900147515
2,1, 1, 1, 0, 6, 0.00,60.00,Tuesday
7,-10.6
8,10.0
9,10.0
49,0.0
76,-5.157275169983426
77,-5.860962828174784
78,-5.209851754561893
79,-48.28519665262884
80,-46.68295314852252
81,-5.26242833914036
2,1, 1, 1, 0, 7, 0.00,60.00,Tuesday
7,-10.6
8,10.0
9,10.0
49,0.0
76,-5.284725033659648
77,-5.9561995832041
78,-5.335794910566307
79,-47.608636072118074
80,-48.29500292373943
81,-5.386864787472964
2,1, 1, 1, 0, 8, 0.00,60.00,Tuesday
7,-10.225
8,8.75
9,8.75
49,0.0
76,-5.317548207545267
77,-5.953091821269059
78,-5.276001111040184
79,83.68013222441886
80,46.822877734563704
81,-5.234454014535103
2,1, 1, 1, 0, 9, 0.00,60.00,Tuesday
7,-9.3125
8,3.0
9,3.0
49,0.0
76,-4.7100247378718
77,-5.463913441508842
78,-4.554119586118214
79,330.39537634663276
80,318.2381069165082
81,-4.398214434364629
2,1, 1, 1, 0,10, 0.00,60.00,Tuesday
7,-7.525
8,1.25
9,0.0
49,0.0
76,-3.9272048773415866
77,-4.916214271707549
78,-3.8860098824551184
79,230.20497977243622
80,253.48476795620678
81,-3.84481488756865
2,1, 1, 1, 0,11, 0.00,60.00,Tuesday
7,-5.6375
8,0.75
9,0.0
49,0.0
76,-3.45040914839406
77,-4.577584379935913
78,-3.447675936460568
79,151.07462964831424
80,155.3807996927224
81,-3.444942724527075
2,1, 1, 1, 0,12, 0.00,60.00,Tuesday
7,-3.9375
8,3.75
9,1.25
49,0.0
76,-3.173227730862645
77,-4.389546765802817
78,-3.212732858459888
79,47.30891059989378
80,64.7661141733567
81,-3.2522379860571307
2,1, 1, 1, 0,13, 0.00,60.00,Tuesday
7,-2.6125
8,8.5
9,5.75
49,0.0
76,-3.173377916531623
77,-4.394540508803319
78,-3.2187246633569244
79,-15.737846887753252
80,-20.00218074424174
81,-3.264071410182226
2,1, 1, 1, 0,14, 0.00,60.00,Tuesday
7,-1.5125000000000002
8,10.0
9,8.625
49,0.0
76,-3.1479777983927537
77,-4.364734906280589
78,-3.1521665899202396
79,34.87516471529129
80,30.13989486306246
81,-3.1563553814477254
2,1, 1, 1, 0,15, 0.00,60.00,Tuesday
7,-1.1
8,9.375
9,9.0
49,0.0
76,-3.042084998056117
77,-4.292254105945256
78,-3.0634925752035693
79,24.11302653832874
80,32.31702026058209
81,-3.0849001523510213
2,1, 1, 1, 0,16, 0.00,60.00,Tuesday
7,-1.1
8,9.625
9,9.625
49,0.0
76,-3.0931505957993
77,-4.345100235904955
78,-3.165916010610005
79,-57.646011521646315
80,-50.24915610570644
81,-3.23868142542071
2,1, 1, 1, 0,17, 0.00,60.00,Tuesday
7,-1.1
8,10.0
9,10.0
49,0.0
76,-3.322660609514281
77,-4.523567617694612
78,-3.4285992794269173
79,-108.68520153565956
80,-105.4811181200119
81,-3.534537949339553
2,1, 1, 1, 0,18, 0.00,60.00,Tuesday
7,-1.4749999999999999
8,10.0
9,10.0
49,0.0
76,-3.557060365539835
77,-4.6822381381867935
78,-3.6168940057661634
79,-62.686507986522955
80,-68.97884940066197
81,-3.6767276459924916
2,1, 1, 1, 0,19, 0.00,60.00,Tuesday
7,-2.0125
8,10.0
9,10.0
49,0.0
76,-3.661362775213874
77,-4.744701382341958
78,-3.6730666783691373
79,-15.186981199811013
80,-21.53123245372873
81,-3.684770581524401
2,1, 1, 1, 0,20, 0.00,60.00,Tuesday
7,-1.5125000000000002
8,10.0
9,10.0
49,0.0
76,-3.6486878037305055
77,-4.723139437015023
78,-3.61968475785985
79,24.00355168259093
80,19.18333963476158
81,-3.5906817119891943
2,1, 1, 1, 0,21, 0.00,60.00,Tuesday
7,-1.4749999999999999
8,10.0
9,10.0
49,0.0
76,-3.6025473023784613
77,-4.704881172814819
78,-3.619667676065964
79,-8.921657082329984
80,1.614023768227348
81,-3.636788049753467
2,1, 1, 1, 0,22, 0.00,60.00,Tuesday
7,-1.3249999999999997
8,10.0
9,10.0
49,0.0
76,-3.6271218830041096
77,-4.713423439045953
78,-3.608445503602516
79,14.563294603754832
80,3.781384345350503
81,-3.589769124200923
2,1, 1, 1, 0,23, 0.00,60.00,Tuesday
7,-1.4749999999999999
8,7.5
9,7.5
49,0.0
76,-3.58353896202057
77,-4.691637166320512
78,-3.592883048712407
79,-1.7445485279163195
80,6.831100231947029
81,-3.602227135404244
2,1, 1, 1, 0,24, 0.00,60.00,Tuesday
7,-1.7
8,4.125
9,4.125
49,0.0
76,-3.6273425542317406
77,-4.729188491595611
78,-3.650343798216653
79,-21.705485313160025
80,-22.52433447976211
81,-3.673345042201565
3,1, 1, 1, 0,Tuesday
10,0.0,0.0, 1,15,0.0, 1,15
11,3.000000,3.0, 1,15,3.0, 1,15
53,-3.7451318639778806,-5.909109649869129, 8,15,-1.2742063358147877,12,30
54,-0.4485113358891842,-13.248337163717455, 1,60,23.78319211777047,11,30
55,0.9917953615854799,0.17071349846951203,19,45,1.6631995440065874,11,45
56,7.059991181918561,1.471135687876689,21,60,13.078709466832764,11,45
57,-3.9336431551753814,-5.909117902407584, 8,15,-2.484094706913132,11,30
58,-2.9025968142734198,-13.24578492667675, 1,60,15.466984301639277, 9,60
59,0.8859986600192332,0.288409416436844,19,45,1.5554037836970873, 9,45
60,6.610573832485869,1.5251285642854933,21,60,10.66796664633875,12,60
61,-4.143413644897631,-5.910718749991237, 8,15,-2.7494726503876294,15,15
62,-5.502063737305572,-13.248401424180429, 1,60,1.5144580493100568,14,30
63,0.7734134566345245,0.2884093394303093,19,45,1.2835735051380155, 2,15
64,6.627103292187361,1.5250574544541542,21,60,10.843598796326212,10,60
65,-4.107863397570015,-5.909109649869129, 8,15,-2.396132420069683,15,30
66,-5.074825252276089,-13.248337163717249, 1,60,5.434311256275393,15,30
67,0.8102029865854559,0.17071362417400762,19,45,1.2835604456707241, 2,15
68,7.124902963549442,1.4710939759672637,21,60,13.541065849712494,10,60
69,-4.0373112367587884,-4.815511286653853, 8,45,-3.629563201354976,23,30
70,-4.037297475766231,-4.815511286653853, 8,60,-3.629563201354976,23,45
71,0.7418245105557627,0.1,20,60,1.3649827605813527, 3,15
72,-4.0635858846247075,-5.610798945710251, 8,15,-2.945002685359595,15,15
73,-5.828139006708646,-15.661372575248695, 1,60,6.995237207270636,12,30
74,0.6732150232924993,0.1,21,30,1.2177058931763072, 2,15
75,8.029402685347103,1.2596573385311403,21,60,15.09185692060078,10,60
2,2, 1, 2, 0, 1, 0.00,60.00,Wednesday
7,-3.0749999999999997
8,2.375
9,2.375
49,0.0
76,-3.7312870113607106
77,-4.816525729294495
78,-3.7897729063541106
79,-69.22801004620491
80,-59.55536858589142
81,-3.8482588013475096
2,2, 1, 2, 0, 2, 0.00,60.00,Wednesday
7,-3.2124999999999995
8,3.25
9,2.625
49,0.0
76,-3.875220872944955
77,-4.908913141104866
78,-3.88727433764862
79,-13.609772081740775
80,-28.593096488316327
81,-3.8993278023522846
2,2, 1, 2, 0, 3, 0.00,60.00,Wednesday
7,-3.1125
8,2.75
9,2.375
49,0.0
76,-3.883435020945446
77,-4.919082647453857
78,-3.9027395717570506
79,-13.962933951020732
80,-7.2816541407316935
81,-3.9220441225686544
2,2, 1, 2, 0, 4, 0.00,60.00,Wednesday
7,-2.9875
8,5.75
9,4.5
49,0.0
76,-3.9284047451505226
77,-4.951321846926588
78,-3.940486986252015
79,-9.318964460534515
80,-13.422934104242044
81,-3.952569227353507
2,2, 1, 2, 0, 5, 0.00,60.00,Wednesday
7,-1.7374999999999998
8,9.25
9,7.25
49,0.0
76,-3.8901485954961594
77,-4.905123495404605
78,-3.8425211750712878
79,43.23761646614736
80,35.09570094343718
81,-3.794893754646416
2,2, 1, 2, 0, 6, 0.00,60.00,Wednesday
7,-1.1
8,10.0
9,8.0
49,0.0
76,-3.7658620181870734
77,-4.817188157405738
78,-3.7312023969973485
79,36.798718504619835
80,42.20157047473152
81,-3.6965427758076226
2,2, 1, 2, 0, 7, 0.00,60.00,Wednesday
7,-0.7875000000000001
8,10.0
9,9.25
49,0.0
76,-3.682877507559032
77,-4.755699678882228
78,-3.653849759553527
79,33.79600210074108
80,31.639502016161543
81,-3.624822011548022
2,2, 1, 2, 0, 8, 0.00,60.00,Wednesday
7,-0.6
8,10.0
9,10.0
49,0.0
76,-3.57979828684862
77,-4.677914319529188
78,-3.5422131527972884
79,49.00281346264871
80,45.60150596405561
81,-3.5046280187459575
2,2, 1, 2, 0, 9, 0.00,60.00,Wednesday
7,-0.225
8,10.0
9,10.0
49,0.0
76,-3.380685320989839
77,-4.519918123582043
78,-3.3075238303984813
79,108.36214376153153
80,98.83114424148448
81,-3.2343623398071237
2,2, 1, 2, 0,10, 0.00,60.00,Wednesday
7,0.375
8,10.0
9,10.0
49,0.0
76,-3.0123867882205855
77,-4.24648139763787
78,-2.932492148284572
79,150.64162415855753
80,152.7381312595539
81,-2.8525975083485595
2,2, 1, 2, 0,11, 0.00,60.00,Wednesday
7,1.2874999999999999
8,10.0
9,10.0
49,0.0
76,-2.6616944736859667
77,-3.998971498099888
78,-2.6046136516723455
79,126.3636526504082
80,124.2960783699904
81,-2.547532829658724
2,2, 1, 2, 0,12, 0.00,60.00,Wednesday
7,1.7
8,10.0
9,10.0
49,0.0
76,-2.2774623644470644
77,-3.719427044805766
78,-2.210001801701427
79,160.2772023800414
80,157.85505254919417
81,-2.1425412389557894
2,2, 1, 2, 0,13, 0.00,60.00,Wednesday
7,1.7
8,10.0
9,10.0
49,0.0
76,-1.8166209931142836
77,-3.390117515111159
78,-1.7463922207092064
79,184.46800314279372
80,182.44697318837498
81,-1.6761634483041292
2,2, 1, 2, 0,14, 0.00,60.00,Wednesday
7,0.6375
8,10.0
9,10.0
49,0.0
76,-1.545757421150302
77,-3.2364874993812975
78,-1.5997445837581528
79,-16.963287708398468
80,18.158684109829895
81,-1.653731746366004
2,2, 1, 2, 0,15, 0.00,60.00,Wednesday
7,-0.375
8,10.0
9,10.0
49,0.0
76,-1.703980393673441
77,-3.3596482701448727
78,-1.7771867727125528
79,-65.00006104989437
80,-69.82865109382092
81,-1.850393151751664
2,2, 1, 2, 0,16, 0.00,60.00,Wednesday
7,0.15
8,10.0
9,10.0
49,0.0
76,-1.8828834607108949
77,-3.490298057953356
78,-1.9499278209535045
79,-60.295254915701186
80,-64.19685525868232
81,-2.016972181196114
2,2, 1, 2, 0,17, 0.00,60.00,Wednesday
7,0.6
8,10.0
9,10.0
49,0.0
76,-2.0093906540185964
77,-3.5772439831656673
78,-2.057181246186343
79,-38.590021352308916
80,-40.25537126888737
81,-2.104971838354089
2,2, 1, 2, 0,18, 0.00,60.00,Wednesday
7,-0.15
8,10.0
9,10.0
49,0.0
76,-2.0953842263228557
77,-3.638973410799116
78,-2.1414244659838415
79,-34.16621806119081
80,-31.304397607522436
81,-2.1874647056448264
2,2, 1, 2, 0,19, 0.00,60.00,Wednesday
7,0.15
8,10.0
9,10.0
49,0.0
76,-2.160021294940936
77,-3.6774843342405426
78,-2.164594084302039
79,0.3975546990582668
80,-8.680386100820968
81,-2.169166873663142
2,2, 1, 2, 0,20, 0.00,60.00,Wednesday
7,0.9125000000000001
8,10.0
9,10.0
49,0.0
76,-2.1075068196776656
77,-3.634899511734888
78,-2.088677341443149
79,29.810889834761156
80,29.125245445152693
81,-2.069847863208633
2,2, 1, 2, 0,21, 0.00,60.00,Wednesday
7,1.4749999999999999
8,10.0
9,10.0
49,0.0
76,-2.0160039123953
77,-3.5712966022190002
78,-1.9920851844795884
79,38.94622879259588
80,37.57628268769739
81,-1.9681664565638766
2,2, 1, 2, 0,22, 0.00,60.00,Wednesday
7,2.0125
8,10.0
9,10.0
49,0.0
76,-1.907813262197517
77,-3.4967309510312883
78,-1.8877056781685129
79,39.43213651801057
80,40.096369824511946
81,-1.8675980941395087
2,2, 1, 2, 0,23, 0.00,60.00,Wednesday
7,0.825
8,10.0
9,10.0
49,0.0
76,-1.8846999800127067
77,-3.505401772553868
78,-1.9421777087019971
79,-42.22691211517188
80,-25.65545812108536
81,-1.9996554373912878
2,2, 1, 2, 0,24, 0.00,60.00,Wednesday
7,0.0
8,10.0
9,10.0
49,0.0
76,-2.0126777182427653
77,-3.58860825085945