Program Version,EnergyPlus, Version 25.1.0-68a4a7c774, YMD=2025.08.28 16:11
1,5,Environment Title[],Latitude[deg],Longitude[deg],Time Zone[],Elevation[m]
2,8,Day of Simulation[],Month[],Day of Month[],DST Indicator[1=yes 0=no],Hour[],StartMinute[],EndMinute[],DayType
3,5,Cumulative Day of Simulation[],Month[],Day of Month[],DST Indicator[1=yes 0=no],DayType  ! When Daily Report Variables Requested
4,2,Cumulative Days of Simulation[],Month[]  ! When Monthly Report Variables Requested
5,1,Cumulative Days of Simulation[] ! When Run Period Report Variables Requested
6,1,Calendar Year of Simulation[] ! When Annual Report Variables Requested
7,1,Environment,Site Outdoor Air Drybulb Temperature [C] !Hourly
8,1,Environment,Site Total Sky Cover [] !Hourly
9,1,Environment,Site Opaque Sky Cover [] !Hourly
10,7,Environment,Site Daylight Saving Time Status [] !Daily [Value,Min,Hour,Minute,Max,Hour,Minute]
11,7,Environment,Site Day Type Index [] !Daily [Value,Min,Hour,Minute,Max,Hour,Minute]
49,1,ZONE ONE,Zone Total Internal Latent Gain Energy [J] !Hourly
50,9,TEST 352A,Other Equipment Total Heating Energy [J] !Monthly [Value,Min,Day,Hour,Minute,Max,Day,Hour,Minute]
51,9,TEST 352 MINUS,Other Equipment Total Heating Energy [J] !Monthly [Value,Min,Day,Hour,Minute,Max,Day,Hour,Minute]
52,9,ZONE ONE,Zone Other Equipment Total Heating Energy [J] !Monthly [Value,Min,Day,Hour,Minute,Max,Day,Hour,Minute]
53,7,ZN001:WALL001,Surface Inside Face Temperature [C] !Daily [Value,Min,Hour,Minute,Max,Hour,Minute]
54,7,ZN001:WALL001,Surface Outside Face Temperature [C] !Daily [Value,Min,Hour,Minute,Max,Hour,Minute]
55,7,ZN001:WALL001,Surface Inside Face Convection Heat Transfer Coefficient [W/m2-K] !Daily [Value,Min,Hour,Minute,Max,Hour,Minute]
56,7,ZN001:WALL001,Surface Outside Face Convection Heat Transfer Coefficient [W/m2-K] !Daily [Value,Min,Hour,Minute,Max,Hour,Minute]
57,7,ZN001:WALL002,Surface Inside Face Temperature [C] !Daily [Value,Min,Hour,Minute,Max,Hour,Minute]
58,7,ZN001:WALL002,Surface Outside Face Temperature [C] !Daily [Value,Min,Hour,Minute,Max,Hour,Minute]
59,7,ZN001:WALL002,Surface Inside Face Convection Heat Transfer Coefficient [W/m2-K] !Daily [Value,Min,Hour,Minute,Max,Hour,Minute]
60,7,ZN001:WALL002,Surface Outside Face Convection Heat Transfer Coefficient [W/m2-K] !Daily [Value,Min,Hour,Minute,Max,Hour,Minute]
61,7,ZN001:WALL003,Surface Inside Face Temperature [C] !Daily [Value,Min,Hour,Minute,Max,Hour,Minute]
62,7,ZN001:WALL003,Surface Outside Face Temperature [C] !Daily [Value,Min,Hour,Minute,Max,Hour,Minute]
63,7,ZN001:WALL003,Surface Inside Face Convection Heat Transfer Coefficient [W/m2-K] !Daily [Value,Min,Hour,Minute,Max,Hour,Minute]
64,7,ZN001:WALL003,Surface Outside Face Convection Heat Transfer Coefficient [W/m2-K] !Daily [Value,Min,Hour,Minute,Max,Hour,Minute]
65,7,ZN001:WALL004,Surface Inside Face Temperature [C] !Daily [Value,Min,Hour,Minute,Max,Hour,Minute]
66,7,ZN001:WALL004,Surface Outside Face Temperature [C] !Daily [Value,Min,Hour,Minute,Max,Hour,Minute]
67,7,ZN001:WALL004,Surface Inside Face Convection Heat Transfer Coefficient [W/m2-K] !Daily [Value,Min,Hour,Minute,Max,Hour,Minute]
68,7,ZN001:WALL004,Surface Outside Face Convection Heat Transfer Coefficient [W/m2-K] !Daily [Value,Min,Hour,Minute,Max,Hour,Minute]
69,7,ZN001:FLR001,Surface Inside Face Temperature [C] !Daily [Value,Min,Hour,Minute,Max,Hour,Minute]
70,7,ZN001:FLR001,Surface Outside Face Temperature [C] !Daily [Value,Min,Hour,Minute,Max,Hour,Minute]
71,7,ZN001:FLR001,Surface Inside Face Convection Heat Transfer Coefficient [W/m2-K] !Daily [Value,Min,Hour,Minute,Max,Hour,Minute]
72,7,ZN001:ROOF001,Surface Inside Face Temperature [C] !Daily [Value,Min,Hour,Minute,Max,Hour,Minute]
73,7,ZN001:ROOF001,Surface Outside Face Temperature [C] !Daily [Value,Min,Hour,Minute,Max,Hour,Minute]
74,7,ZN001:ROOF001,Surface Inside Face Convection Heat Transfer Coefficient [W/m2-K] !Daily [Value,Min,Hour,Minute,Max,Hour,Minute]
75,7,ZN001:ROOF001,Surface Outside Face Convection Heat Transfer Coefficient [W/m2-K] !Daily [Value,Min,Hour,Minute,Max,Hour,Minute]
76,1,ZONE ONE,Zone Mean Air Temperature [C] !Hourly
77,1,ZONE ONE,Zone Wetbulb Globe Temperature [C] !Hourly
78,1,ZONE ONE,Zone Operative Temperature [C] !Hourly
79,1,ZONE ONE,Zone Air Heat Balance Surface Convection Rate [W] !Hourly
80,1,ZONE ONE,Zone Air Heat Balance Air Energy Storage Rate [W] !Hourly
81,1,ZONE ONE,Zone Mean Radiant Temperature [C] !Hourly
17,11,Electricity:Facility [J] !Annual [Value,Min,Month,Day,Hour,Minute,Max,Month,Day,Hour,Minute]
End of Data Dictionary
1,DENVER CENTENNIAL  GOLDEN   N ANN HTG 99% CONDNS DB,  41.98, -87.92,  -6.00, 201.00
2,1,12,21, 0, 1, 0.00,60.00,WinterDesignDay
7,-15.5
8,6.75
9,6.75
49,0.0
76,-18.33840636959752
77,-18.338020145359305
78,-18.337132808138804
79,-0.0337537381384978
80,-0.033812098475831644
81,-18.335859246680084
2,1,12,21, 0, 2, 0.00,60.00,WinterDesignDay
7,-15.5
8,9.625
9,9.625
49,0.0
76,-18.33848995536416
77,-18.338104200128654
78,-18.337217216145035
79,-0.03329062507600833
80,-0.03334818564427165
81,-18.33594447692591
2,1,12,21, 0, 3, 0.00,60.00,WinterDesignDay
7,-15.5
8,10.0
9,10.0
49,0.0
76,-18.338572394268187
77,-18.338187907400798
78,-18.337300465543038
79,-0.03283385820334539
80,-0.03289062992809391
81,-18.33602853681789
2,1,12,21, 0, 4, 0.00,60.00,WinterDesignDay
7,-15.5
8,10.0
9,10.0
49,0.0
76,-18.33865370202648
77,-18.33826848855763
78,-18.337382572224406
79,-0.03238335080907051
80,-0.03243934447585949
81,-18.33611144242234
2,1,12,21, 0, 5, 0.00,60.00,WinterDesignDay
7,-15.5
8,10.0
9,10.0
49,0.0
76,-18.338733894141136
77,-18.338349093176014
78,-18.33746355186314
79,-0.03193901734990501
80,-0.03199424359238564
81,-18.33619320958515
2,1,12,21, 0, 6, 0.00,60.00,WinterDesignDay
7,-15.5
8,10.0
9,10.0
49,0.0
76,-18.338812985902372
77,-18.338429002901464
78,-18.337543419918603
79,-0.03150077345140456
80,-0.031555242754836815
81,-18.336273853934827
2,1,12,21, 0, 7, 0.00,60.00,WinterDesignDay
7,-15.5
8,10.0
9,10.0
49,0.0
76,-18.33889099239142
77,-18.338506190491987
78,-18.337622191638438
79,-0.031068535883995718
80,-0.03112225860172348
81,-18.33635339088546
2,1,12,21, 0, 8, 0.00,60.00,WinterDesignDay
7,-15.5
8,8.75
9,8.75
49,0.0
76,-18.338967928483356
77,-18.33858302517553
78,-18.337699882061507
79,-0.030642222539298825
80,-0.0306952088777096
81,-18.336431835639665
2,1,12,21, 0, 9, 0.00,60.00,WinterDesignDay
7,-15.5
8,3.0
9,3.0
49,0.0
76,-18.339043808849873
77,-18.338659511402554
78,-18.33777650602066
79,-0.030221752433546634
80,-0.030274012461109896
81,-18.336509203191454
2,1,12,21, 0,10, 0.00,60.00,WinterDesignDay
7,-15.5
8,1.25
9,0.0
49,0.0
76,-18.33911864796209
77,-18.338734959154362
78,-18.337852078145623
79,-0.029807045678989397
80,-0.029858589327607665
81,-18.336585508329147
2,1,12,21, 0,11, 0.00,60.00,WinterDesignDay
7,-15.5
8,0.75
9,0.0
49,0.0
76,-18.33919246009325
77,-18.33880845401397
78,-18.3379266128657
79,-0.029398023479696445
80,-0.029448860538901556
81,-18.33666076563815
2,1,12,21, 0,12, 0.00,60.00,WinterDesignDay
7,-15.5
8,3.75
9,1.25
49,0.0
76,-18.339265259321422
77,-18.33888125189862
78,-18.33800012441258
79,-0.028994608101740482
80,-0.029044748239943196
81,-18.33673498950374
2,1,12,21, 0,13, 0.00,60.00,WinterDesignDay
7,-15.5
8,8.5
9,5.75
49,0.0
76,-18.339337059532166
77,-18.338955778937034
78,-18.338072626822992
79,-0.028596722866514046
80,-0.028646175627303563
81,-18.33680819411382
2,1,12,21, 0,14, 0.00,60.00,WinterDesignDay
7,-15.5
8,10.0
9,8.625
49,0.0
76,-18.33940787442108
77,-18.339025748748213
78,-18.338144133941345
79,-0.02820429214779807
80,-0.0282530669171732
81,-18.336880393461605
2,1,12,21, 0,15, 0.00,60.00,WinterDesignDay
7,-15.5
8,9.375
9,9.0
49,0.0
76,-18.339477717496482
77,-18.33909486757859
78,-18.3382146594224
79,-0.027817241344133325
80,-0.027865347404583327
81,-18.33695160134831
2,1,12,21, 0,16, 0.00,60.00,WinterDesignDay
7,-15.5
8,9.625
9,9.625
49,0.0
76,-18.33954660208189
77,-18.339163891061766
78,-18.338284216733832
79,-0.027435496866440978
80,-0.02748294335906395
81,-18.337021831385783
2,1,12,21, 0,17, 0.00,60.00,WinterDesignDay
7,-15.5
8,10.0
9,10.0
49,0.0
76,-18.339614541318568
77,-18.339232599546282
78,-18.338352819158814
79,-0.027058986125957585
80,-0.027105782081405422
81,-18.33709109699906
2,1,12,21, 0,18, 0.00,60.00,WinterDesignDay
7,-15.5
8,10.0
9,10.0
49,0.0
76,-18.339681548168002
77,-18.33929843716556
78,-18.338420479798494
79,-0.02668763752449932
80,-0.026733791840974207
81,-18.33715941142899
2,1,12,21, 0,19, 0.00,60.00,WinterDesignDay
7,-15.5
8,10.0
9,10.0
49,0.0
76,-18.33974763541431
77,-18.33936864499824
78,-18.3384872115745
79,-0.02632138043722776
80,-0.026366901892926703
81,-18.337226787734686
2,1,12,21, 0,20, 0.00,60.00,WinterDesignDay
7,-15.5
8,10.0
9,10.0
49,0.0
76,-18.339812815666725
77,-18.33943150729204
78,-18.33855302723141
79,-0.025960145195535578
80,-0.026005042460467594
81,-18.337293238796093
2,1,12,21, 0,21, 0.00,60.00,WinterDesignDay
7,-15.5
8,10.0
9,10.0
49,0.0
76,-18.339877101361907
77,-18.33949409856711
78,-18.338617939339148
79,-0.02560386309551621
80,-0.02564814469221558
81,-18.337358777316386
2,1,12,21, 0,22, 0.00,60.00,WinterDesignDay
7,-15.5
8,10.0
9,10.0
49,0.0
76,-18.33994050476634
77,-18.3395562846698
78,-18.33868196029537
79,-0.025252466349500402
80,-0.025296140714496252
81,-18.337423415824404
2,1,12,21, 0,23, 0.00,60.00,WinterDesignDay
7,-15.5
8,7.5
9,7.5
49,0.0
76,-18.340003037978637
77,-18.33961814996831
78,-18.338745102327852
79,-0.024905888103163853
80,-0.02494896355144645
81,-18.33748716667707
2,1,12,21, 0,24, 0.00,60.00,WinterDesignDay
7,-15.5
8,4.125
9,4.125
49,0.0
76,-18.340064712931827
77,-18.339679588793473
78,-18.33880737749677
79,-0.024564062407223197
80,-0.024606547133022988
81,-18.33755004206172
3,1,12,21, 0,WinterDesignDay
10,0.0,0.0, 1,15,0.0, 1,15
11,10.000000,10.0, 1,15,10.0, 1,15
53,-18.272257645189292,-18.2730297254973,24,60,-18.271397326556098, 1,15
54,-17.415427145910623,-17.415450655459416,24,60,-17.415400949603995, 1,15
55,0.531989604923239,0.5318770402506489, 1,15,0.5320907320867867,24,60
56,7.41649966527934,7.416498747915677,24,60,7.416500687498654, 1,15
57,-18.275695456055928,-18.27646749469468,24,60,-18.274835183739327, 1,15
58,-17.461941139478586,-17.461965197444137,24,60,-17.461914332081236, 1,15
59,0.5227331504972774,0.5226164356581323, 1,15,0.5228380047351886,24,60
60,7.151497037142094,7.151496254618157,24,60,7.151497909111187, 1,15
61,-18.275695456055928,-18.27646749469468,24,60,-18.274835183739327, 1,15
62,-17.461941139478586,-17.461965197444137,24,60,-17.461914332081236, 1,15
63,0.5227331504972774,0.5226164356581323, 1,15,0.5228380047351886,24,60
64,7.151497037142094,7.151496254618157,24,60,7.151497909111187, 1,15
65,-18.272257645189292,-18.2730297254973,24,60,-18.271397326556098, 1,15
66,-17.415427145910623,-17.415450655459416,24,60,-17.415400949603995, 1,15
67,0.531989604923239,0.5318770402506489, 1,15,0.5320907320867867,24,60
68,7.41649966527934,7.416498747915677,24,60,7.416500687498654, 1,15
69,-18.342950743663902,-18.343860686622232,24,60,-18.341936775592963, 1,15
70,-18.34293045500248,-18.343843549497137,24,60,-18.341912975125776, 1,15
71,0.11721577987603916,0.11601888511393832, 1,15,0.11827553056790818,24,60
72,-18.40586918448253,-18.40667595929867,24,60,-18.40497020425103, 1,15
73,-20.307664509133797,-20.307676588202533,24,60,-20.3076510495459, 1,15
74,0.6161145308829566,0.6161040166420797,24,60,0.616126065784137, 1,15
75,8.618831859919785,8.6188315431341,24,60,8.618832212911595, 1,15
4,1,12
50,30412800.0,9999.0, 0, 0, 0,316800.0,21, 1,15
51,-30412800.0,-316800.0,21, 1,15,-9999.0, 0, 0, 0
52,0.0,0.0,21, 1,15,0.0,21, 1,15
1,DENVER CENTENNIAL  GOLDEN   N ANN CLG 1% CONDNS DB=>MWB,  41.98, -87.92,  -6.00, 201.00
2,1, 7,21, 0, 1, 0.00,60.00,SummerDesignDay
7,18.966
8,6.75
9,6.75
49,0.0
76,29.345656530890825
77,18.98917582471832
78,29.274705706615
79,-86.45072713023217
80,-86.35385036665207
81,29.203754882339172
2,1, 7,21, 0, 2, 0.00,60.00,SummerDesignDay
7,18.244
8,9.625
9,9.625
49,0.0
76,29.091780465806615
77,18.846671389626934
78,29.02089905371994
79,-84.70761740437948
80,-85.11805155587052
81,28.950017641633266
2,1, 7,21, 0, 3, 0.00,60.00,SummerDesignDay
7,17.731
8,10.0
9,10.0
49,0.0
76,28.844153160887448
77,18.707486931398968
78,28.773452265191445
79,-83.05131461603585
80,-83.25011638293846
81,28.702751369495438
2,1, 7,21, 0, 4, 0.00,60.00,SummerDesignDay
7,17.275000000000002
8,10.0
9,10.0
49,0.0
76,28.598805768006358
77,18.569127138606135
78,28.52747309148828
79,-83.48150081605141
80,-83.36907825211273
81,28.4561404149702
2,1, 7,21, 0, 5, 0.00,60.00,SummerDesignDay
7,16.913999999999998
8,10.0
9,10.0
49,0.0
76,28.35670143878609
77,18.43397440505079
78,28.290037613985817
79,-75.1345332045422
80,-78.65655620371594
81,28.22337378918554
2,1, 7,21, 0, 6, 0.00,60.00,SummerDesignDay
7,16.990000000000002
8,10.0
9,10.0
49,0.0
76,28.33859959794286
77,18.451773095260382
78,28.365324992742764
79,73.85253879749698
80,53.34428141814691
81,28.392050387542668
2,1, 7,21, 0, 7, 0.00,60.00,SummerDesignDay
7,17.769
8,10.0
9,10.0
49,0.0
76,28.61371819819079
77,18.613883053463518
78,28.66356699450823
79,94.25641390290767
80,96.80541941272067
81,28.713415790825678
2,1, 7,21, 0, 8, 0.00,60.00,SummerDesignDay
7,19.783
8,8.75
9,8.75
49,0.0
76,28.902844868140775
77,18.78089865974687
78,28.96679670398958
79,112.68279580003428
80,106.44620221167015
81,29.030748539838385
2,1, 7,21, 0, 9, 0.00,60.00,SummerDesignDay
7,22.557
8,3.0
9,3.0
49,0.0
76,29.29901638126021
77,19.00896310334029
78,29.381300768822896
79,148.73563805158398
80,146.7421419654575
81,29.463585156385584
2,1, 7,21, 0,10, 0.00,60.00,SummerDesignDay
7,25.255000000000003
8,1.25
9,0.0
49,0.0
76,29.733321291400134
77,19.251573298632565
78,29.81307514744961
79,140.81561597927808
80,142.85421226167105
81,29.892829003499088
2,1, 7,21, 0,11, 0.00,60.00,SummerDesignDay
7,27.649
8,0.75
9,0.0
49,0.0
76,30.12434374297601
77,19.4674131363464
78,30.19503778451272
79,121.60273036268836
80,124.39599283265011
81,30.265731826049432
2,1, 7,21, 0,12, 0.00,60.00,SummerDesignDay
7,29.454
8,3.75
9,1.25
49,0.0
76,30.441940019322374
77,19.63989272414433
78,30.497138720169936
79,91.61361578343165
80,95.50270150290268
81,30.552337421017505
2,1, 7,21, 0,13, 0.00,60.00,SummerDesignDay
7,30.784
8,8.5
9,5.75
49,0.0
76,30.737473592688275
77,19.80941146400394
78,30.809394205898286
79,117.98083924552276
80,111.62705751182236
81,30.881314819108294
2,1, 7,21, 0,14, 0.00,60.00,SummerDesignDay
7,31.715
8,10.0
9,8.625
49,0.0
76,31.10188926982204
77,20.008594656797555
78,31.162954864859334
79,118.33851921417332
80,121.01244516164246
81,31.22402045989663
2,1, 7,21, 0,15, 0.00,60.00,SummerDesignDay
7,32.0
8,9.375
9,9.0
49,0.0
76,31.407927294734883
77,20.16924054450626
78,31.438912187862314
79,84.01858898057523
80,89.17495460410649
81,31.469897080989746
2,1, 7,21, 0,16, 0.00,60.00,SummerDesignDay
7,31.43
8,9.625
9,9.625
49,0.0
76,31.587203134962408
77,20.255741216068923
78,31.575693223873195
79,34.122996852538535
80,41.04686427861785
81,31.564183312783985
2,1, 7,21, 0,17, 0.00,60.00,SummerDesignDay
7,30.328
8,10.0
9,10.0
49,0.0
76,31.625745432466566
77,20.264448088901016
78,31.572183371148103
79,-3.2374812484486952
80,-0.07473110128789573
81,31.518621309829644
2,1, 7,21, 0,18, 0.00,60.00,SummerDesignDay
7,28.922
8,10.0
9,10.0
49,0.0
76,31.55284000011621
77,20.212764424177493
78,31.461462296974425
79,-57.692289985597284
80,-47.004677171526154
81,31.37008459383264
2,1, 7,21, 0,19, 0.00,60.00,SummerDesignDay
7,26.927
8,10.0
9,10.0
49,0.0
76,31.201140186682462
77,20.00206294753757
78,31.056991892491105
79,-188.27459472715296
80,-169.2728570623268
81,30.912843598299755
2,1, 7,21, 0,20, 0.00,60.00,SummerDesignDay
7,25.027
8,10.0
9,10.0
49,0.0
76,30.632602508994474
77,19.703257282262832
78,30.54517785169776
79,-144.5221965827746
80,-165.02859512379123
81,30.457753194401036
2,1, 7,21, 0,21, 0.00,60.00,SummerDesignDay
7,23.544999999999998
8,10.0
9,10.0
49,0.0
76,30.326458717046464
77,19.539812986859673
78,30.26259714283209
79,-83.07892089154649
80,-84.21096680767285
81,30.198735568617717
2,1, 7,21, 0,22, 0.00,60.00,SummerDesignDay
7,22.177
8,10.0
9,10.0
49,0.0
76,30.087714907105955
77,19.406268724191513
78,30.022732075279986
79,-81.14321454138937
80,-80.68290808057239
81,29.957749243454025
2,1, 7,21, 0,23, 0.00,60.00,SummerDesignDay
7,20.999000000000002
8,7.5
9,7.5
49,0.0
76,29.845843992649332
77,19.270684289416494
78,29.779426293080135
79,-81.59156413337847
80,-81.71710301399023
81,29.71300859351094
2,1, 7,21, 0,24, 0.00,60.00,SummerDesignDay
7,19.935000000000002
8,4.125
9,4.125
49,0.0
76,29.60060843824025
77,19.132635993791517
78,29.531507335653615
79,-84.56732765088512
80,-84.06004034301878
81,29.462406233066986
3,1, 7,21, 0,SummerDesignDay
10,0.0,0.0, 1,15,0.0, 1,15
11,9.000000,9.0, 1,15,9.0, 1,15
53,29.85877672358916,27.655805845551075, 5,60,31.959382596371253,15,30
54,28.060799483610722,15.54082108573947, 5,45,48.39755454933185,13,30
55,1.012732697645361,0.3452955357352701,17,30,1.2460564770580702,13,45
56,11.654963303603063,11.426183902978604,14,45,12.26204365490196,19,45
57,29.99324683073357,27.66925543097894, 5,45,31.67774025964332,16,15
58,31.043602855687993,15.372066780194132, 5,45,55.73815826098383, 9,15
59,1.0320715008326304,0.36079306362254676,17,30,1.4158681576048593, 9,30
60,9.79486831412804,9.648741643725591,12,45,10.18737686001347,19,45
61,29.76313949857355,27.66924115503285, 5,45,31.67774025964336,16,15
62,25.83428383438546,15.371759199280067, 5,45,36.133381974720876,18,30
63,0.8355696101808006,0.24281221708066345, 9,60,1.1372340627035447, 5,60
64,9.757963781653684,9.651448998765352, 7,30,10.07254183101195, 6,15
65,29.9522082524161,27.655805845551072, 5,60,32.83698799588712,16,60
66,30.232269571997055,15.54082108573947, 5,45,61.63341274576352,16,60
67,1.0213964486286018,0.24628809344002,10,15,1.4018354771883117,16,60
68,11.648655610952835,11.426183692641331,14,30,12.072546934284551, 6,45
69,29.93608129484193,28.82908826751458, 7,45,31.043163554747082,18,60
70,29.936066366007196,28.82908826751458, 7,60,31.043163554747082,19,15
71,0.9183496382593074,0.11047753711013933, 8,45,1.3440839758354843, 5,60
72,30.004021210974134,27.940054837350896, 5,60,31.929244973364725,15,60
73,32.31610568964445,12.974066977187695, 5,45,60.63692632915189,13,30
74,0.800355245577625,0.1,18,15,1.1323247316398328,20,15
75,13.38019593094814,13.087110661519478,17,30,13.86871805945296, 6,45
4,1, 7
50,30412800.0,316800.0,21, 1,15,316800.0,21, 1,15
51,-30412800.0,-316800.0,21, 1,15,-316800.0,21, 1,15
52,0.0,0.0,21, 1,15,0.0,21, 1,15
1,RUN PERIOD 1,  41.98, -87.92,  -6.00, 201.00
2,1, 1, 1, 0, 1, 0.00,60.00,Tuesday
7,-8.2625
8,6.75
9,6.75
49,0.0
76,-4.081875019559432
77,-5.08975275329131
78,-4.218196000718248
79,-199.797972721667
80,-164.1237079473254
81,-4.354516981877064
2,1, 1, 1, 0, 2, 0.00,60.00,Tuesday
7,-11.8875
8,9.625
9,9.625
49,0.0
76,-4.593814059904259
77,-5.444920393646521
78,-4.6705307918492815
79,-118.62115901596988
80,-150.36400188105534
81,-4.747247523794304
2,1, 1, 1, 0, 3, 0.00,60.00,Tuesday
7,-11.325
8,10.0
9,10.0
49,0.0
76,-4.780254908349567
77,-5.576971793726585
78,-4.830854553131873
79,-48.1773744874389
80,-49.31861450719921
81,-4.881454197914179
2,1, 1, 1, 0, 4, 0.00,60.00,Tuesday
7,-11.1
8,10.0
9,10.0
49,0.0
76,-4.893968706957769
77,-5.662221566465697
78,-4.941645679925683
79,-42.61206199593884
80,-42.50484036506917
81,-4.989322652893597
2,1, 1, 1, 0, 5, 0.00,60.00,Tuesday
7,-10.7875
8,10.0
9,10.0
49,0.0
76,-4.997977642528918
77,-5.738671290266048
78,-5.04096972744415
79,-35.725502520088675
80,-37.02812788642797
81,-5.083961812359382
2,1, 1, 1, 0, 6, 0.00,60.00,Tuesday
7,-10.6
8,10.0
9,10.0
49,0.0
76,-5.092618660851931
77,-5.810052656257523
78,-5.137145507383684
79,-39.40055991175536
80,-38.17636308683697
81,-5.181672353915436
2,1, 1, 1, 0, 7, 0.00,60.00,Tuesday
7,-10.6
8,10.0
9,10.0
49,0.0
76,-5.197084684634423
77,-5.888107749075371
78,-5.240571104239082
79,-39.136141774304974
80,-39.66865413045627
81,-5.284057523843742
2,1, 1, 1, 0, 8, 0.00,60.00,Tuesday
7,-10.225
8,8.75
9,8.75
49,0.0
76,-5.232727413712079
77,-5.89337811015786
78,-5.204568065086069
79,56.96701392942302
80,29.792277435395206
81,-5.17640871646006
2,1, 1, 1, 0, 9, 0.00,60.00,Tuesday
7,-9.3125
8,3.0
9,3.0
49,0.0
76,-4.792229483805704
77,-5.531453338533142
78,-4.6571495112338495
79,244.61018054249288
80,234.30445527698538
81,-4.522069538661995
2,1, 1, 1, 0,10, 0.00,60.00,Tuesday
7,-7.525
8,1.25
9,0.0
49,0.0
76,-4.190409003605051
77,-5.10633347145211
78,-4.132669361371505
79,186.72165685452404
80,202.50317327905987
81,-4.074929719137959
2,1, 1, 1, 0,11, 0.00,60.00,Tuesday
7,-5.6375
8,0.75
9,0.0
49,0.0
76,-3.7928573666107783
77,-4.822591755426917
78,-3.7647395626000004
79,128.58158851520824
80,132.0281044042486
81,-3.736621758589223
2,1, 1, 1, 0,12, 0.00,60.00,Tuesday
7,-3.9375
8,3.75
9,1.25
49,0.0
76,-3.545089661301484
77,-4.654335011591296
78,-3.5555183504852987
79,49.85271757145157
80,63.406488202273025
81,-3.5659470396691124
2,1, 1, 1, 0,13, 0.00,60.00,Tuesday
7,-2.6125
8,8.5
9,5.75
49,0.0
76,-3.518609192631468
77,-4.642433408636986
78,-3.544103326125815
79,-5.9763511839653365
80,-8.174176516733418
81,-3.569597459620162
2,1, 1, 1, 0,14, 0.00,60.00,Tuesday
7,-1.5125000000000002
8,10.0
9,8.625
49,0.0
76,-3.487806876987428
77,-4.611828938341093
78,-3.48302375772988
79,30.11501308714074
80,26.558453127476056
81,-3.4782406384723323
2,1, 1, 1, 0,15, 0.00,60.00,Tuesday
7,-1.1
8,9.375
9,9.0
49,0.0
76,-3.40182786344825
77,-4.55326639867921
78,-3.4127898906920797
79,19.117242771748483
80,25.672520367129305
81,-3.4237519179359084
2,1, 1, 1, 0,16, 0.00,60.00,Tuesday
7,-1.1
8,9.625
9,9.625
49,0.0
76,-3.436614691020553
77,-4.592736337966001
78,-3.4938066025178296
79,-41.82012403967699
80,-36.20869203250062
81,-3.5509985140151055
2,1, 1, 1, 0,17, 0.00,60.00,Tuesday
7,-1.1
8,10.0
9,10.0
49,0.0
76,-3.612836515082333
77,-4.732383311018417
78,-3.702731528130267
79,-87.1286659900291
80,-83.68305770336855
81,-3.7926265411782016
2,1, 1, 1, 0,18, 0.00,60.00,Tuesday
7,-1.4749999999999999
8,10.0
9,10.0
49,0.0
76,-3.8056196227690577
77,-4.863334275764654
78,-3.857693784662789
79,-52.65810497458937
80,-57.8770232346816
81,-3.9097679465565194
2,1, 1, 1, 0,19, 0.00,60.00,Tuesday
7,-2.0125
8,10.0
9,10.0
49,0.0
76,-3.8928429113951566
77,-4.914942646678679
78,-3.9020119446164356
79,-12.146588319397617
80,-17.664245670400522
81,-3.9111809778377133
2,1, 1, 1, 0,20, 0.00,60.00,Tuesday
7,-1.5125000000000002
8,10.0
9,10.0
49,0.0
76,-3.880282422638497
77,-4.895363678574957
78,-3.855152490765967
79,20.317849252461944
80,16.57247489679471
81,-3.830022558893436
2,1, 1, 1, 0,21, 0.00,60.00,Tuesday
7,-1.4749999999999999
8,10.0
9,10.0
49,0.0
76,-3.841521889823248
77,-4.880442661017882
78,-3.855794447009707
79,-7.081590738070473
80,1.5768107530574067
81,-3.8700670041961662
2,1, 1, 1, 0,22, 0.00,60.00,Tuesday
7,-1.3249999999999997
8,10.0
9,10.0
49,0.0
76,-3.861567425825004
77,-4.887317974180407
78,-3.8455238284635023
79,12.099105945017662
80,3.179614599776534
81,-3.829480231102
2,1, 1, 1, 0,23, 0.00,60.00,Tuesday
7,-1.4749999999999999
8,7.5
9,7.5
49,0.0
76,-3.8240227058663216
77,-4.868212744902307
78,-3.8303920471059185
79,-0.3170894357590406
80,6.637295710227608
81,-3.836761388345516
2,1, 1, 1, 0,24, 0.00,60.00,Tuesday
7,-1.7
8,4.125
9,4.125
49,0.0
76,-3.8579065173129985
77,-4.898248807648683
78,-3.8770761449178446
79,-17.543699124043457
80,-18.104150625727566
81,-3.896245772522691
3,1, 1, 1, 0,Tuesday
10,0.0,0.0, 1,15,0.0, 1,15
11,3.000000,3.0, 1,15,3.0, 1,15
53,-3.9751222847050394,-5.675676935199196, 8,15,-2.1148284661444494,12,30
54,-0.43058850635991613,-13.356628020432716, 1,60,23.974381592090992,11,30
55,0.9077517924311772,0.20042181594513403,21,60,1.5158885829607787,11,45
56,7.0587370315420905,1.4703135917080448,21,60,13.079092565760151,11,45
57,-4.112698243056673,-5.675682241720721, 8,15,-3.0390644473231028,11,30
58,-2.9019914710775683,-13.353767392334078, 1,60,15.662644946754536, 9,60
59,0.8151241789562897,0.1923127660161322,19,45,1.4167543568720424, 9,45
60,6.6086935308273524,1.525129785148947,21,60,10.666914280237645,12,60
61,-4.264749267321905,-5.676941100089721, 8,15,-3.1628248349030583,15,15
62,-5.527284363577322,-13.356686006072188, 1,60,1.5521648024959,14,30
63,0.7012323323212962,0.19231281340606285,19,45,1.173886297731768, 2,15
64,6.624882541948499,1.5250812506129416,21,60,10.846082019812581,10,60
65,-4.238818857452627,-5.675676935199196, 8,15,-2.9042604001250516,15,30
66,-5.09554685648684,-13.356628020432678, 1,60,5.511235763907138,15,30
67,0.73342838502189,0.20051128802395557,21,60,1.173874888824855, 2,15
68,7.123382264672629,1.4702887943453584,21,60,13.544470383358888,10,60
69,-4.198277997699336,-4.819620302270186, 8,45,-3.8672396412203622,23,30
70,-4.198254715106976,-4.819620302270186, 8,60,-3.8672396412203622,23,45
71,0.6860928920048758,0.1, 1,15,1.2638380499038784, 3,30
72,-4.223898842512034,-5.511970921944496, 8,15,-3.2662528284569317,15,15
73,-5.830829558191681,-15.662942389251977, 1,60,6.992323629928951,12,30
74,0.6702766036647759,0.12796578884335977,21,30,1.1974129597716303, 2,15
75,8.029500274364132,1.2603158408808102,21,60,15.091921374118781,10,60
2,2, 1, 2, 0, 1, 0.00,60.00,Wednesday
7,-3.0749999999999997
8,2.375
9,2.375
49,0.0
76,-3.941144770071052
77,-4.968859033334197
78,-3.9904787293891175
79,-55.41634525980494
80,-47.64731968343577
81,-4.039812688707182
2,2, 1, 2, 0, 2, 0.00,60.00,Wednesday
7,-3.2124999999999995
8,3.25
9,2.625
49,0.0
76,-4.05876383918805
77,-5.044225658024444
78,-4.069092398328204
79,-12.496992052314404
80,-24.39939534490395
81,-4.079420957468357
2,2, 1, 2, 0, 3, 0.00,60.00,Wednesday
7,-3.1125
8,2.75
9,2.375
49,0.0
76,-4.067174497579505
77,-5.053853408195046
78,-4.0824644323607995
79,-11.000113598066697
80,-5.836921493348696
81,-4.097754367142095
2,2, 1, 2, 0, 4, 0.00,60.00,Wednesday
7,-2.9875
8,5.75
9,4.5
49,0.0
76,-4.103835037672884
77,-5.0805426169914645
78,-4.11373245251889
79,-8.30723432593356
80,-11.440393518832124
81,-4.123629867364896
2,2, 1, 2, 0, 5, 0.00,60.00,Wednesday
7,-1.7374999999999998
8,9.25
9,7.25
49,0.0
76,-4.074525479325038
77,-5.043619694798517
78,-4.03372507082131
79,34.81455516239435
80,28.10440906359815
81,-3.9929246623175825
2,2, 1, 2, 0, 6, 0.00,60.00,Wednesday
7,-1.1
8,10.0
9,8.0
49,0.0
76,-3.9730967738626
77,-4.971475445612469
78,-3.942139927551576
79,30.574396324685754
80,34.81731847005472
81,-3.9111830812405524
2,2, 1, 2, 0, 7, 0.00,60.00,Wednesday
7,-0.7875000000000001
8,10.0
9,9.25
49,0.0
76,-3.9041083001954613
77,-4.919933401105304
78,-3.8778542880351576
79,27.852339078950813
80,26.189758020033494
81,-3.8516002758748544
2,2, 1, 2, 0, 8, 0.00,60.00,Wednesday
7,-0.6
8,10.0
9,10.0
49,0.0
76,-3.819283830216944
77,-4.855564600217881
78,-3.7848827139721144
79,40.187035895350945
80,37.45586004719718
81,-3.7504815977272843
2,2, 1, 2, 0, 9, 0.00,60.00,Wednesday
7,-0.225
8,10.0
9,10.0
49,0.0
76,-3.6571418398699738
77,-4.725487147023967
78,-3.590638360066155
79,88.10193422147785
80,80.3871855605565
81,-3.524134880262337
2,2, 1, 2, 0,10, 0.00,60.00,Wednesday
7,0.375
8,10.0
9,10.0
49,0.0
76,-3.3577008117120304
77,-4.501114795273576
78,-3.2820616905011084
79,123.70738030488752
80,124.94170531652588
81,-3.206422569290186
2,2, 1, 2, 0,11, 0.00,60.00,Wednesday
7,1.2874999999999999
8,10.0
9,10.0
49,0.0
76,-3.0661944960088605
77,-4.294456234470999
78,-3.008316635573451
79,105.5832491849666
80,104.06549742539747
81,-2.9504387751380414
2,2, 1, 2, 0,12, 0.00,60.00,Wednesday
7,1.7
8,10.0
9,10.0
49,0.0
76,-2.7463822357413252
77,-4.060429157459086
78,-2.6774381536908507
79,134.18582247464556
80,131.83993732392327
81,-2.6084940716403757
2,2, 1, 2, 0,13, 0.00,60.00,Wednesday
7,1.7
8,10.0
9,10.0
49,0.0
76,-2.359844522587121
77,-3.7828727541509592
78,-2.286713997922485
79,154.89926232648912
80,153.3784227612496
81,-2.2135834732578497
2,2, 1, 2, 0,14, 0.00,60.00,Wednesday
7,0.6375
8,10.0
9,10.0
49,0.0
76,-2.1231763989563275
77,-3.647341160438066
78,-2.156062409354898
79,-6.37644077744396
80,21.99500884681874
81,-2.1889484197534674
2,2, 1, 2, 0,15, 0.00,60.00,Wednesday
7,-0.375
8,10.0
9,10.0
49,0.0
76,-2.2374081073290775
77,-3.739726086587674
78,-2.2911649291454426
79,-49.643459765009766
80,-53.09151917106266
81,-2.344921750961808
2,2, 1, 2, 0,16, 0.00,60.00,Wednesday
7,0.15
8,10.0
9,10.0
49,0.0
76,-2.3741091018525347
77,-3.842589783177915
78,-2.4289915481768514
79,-46.40900254330875
80,-49.31013135813876
81,-2.483873994501168
2,2, 1, 2, 0,17, 0.00,60.00,Wednesday
7,0.6
8,10.0
9,10.0
49,0.0
76,-2.4716710837252522
77,-3.9099782635962628
78,-2.510711006670733
79,-29.286486357112132
80,-30.79851538813468
81,-2.5497509296162133
2,2, 1, 2, 0,18, 0.00,60.00,Wednesday
7,-0.15
8,10.0
9,10.0
49,0.0
76,-2.5358534870125196
77,-3.956127357837083
78,-2.573076568877389
79,-25.608043316241492
80,-23.327481825713036
81,-2.6102996507422587
2,2, 1, 2, 0,19, 0.00,60.00,Wednesday
7,0.15
8,10.0
9,10.0
49,0.0
76,-2.5852263324429496
77,-3.9859555904960784
78,-2.5885312082805507
79,0.6157076009458686
80,-6.5738784670453345
81,-2.5918360841181514
2,2, 1, 2, 0,20, 0.00,60.00,Wednesday
7,0.9125000000000001
8,10.0
9,10.0
49,0.0
76,-2.541404688679533
77,-3.95028207126387
78,-2.523971698342789
79,24.91301818651207
80,24.25645122346387
81,-2.506538708006045
2,2, 1, 2, 0,21, 0.00,60.00,Wednesday
7,1.4749999999999999
8,10.0
9,10.0
49,0.0
76,-2.4646771810799866
77,-3.896993100183635
78,-2.4419899970076795
79,32.73891277204423
80,31.59822155330454
81,-2.4193028129353724
2,2, 1, 2, 0,22, 0.00,60.00,Wednesday
7,2.0125
8,10.0
9,10.0
49,0.0
76,-2.373421879125181
77,-3.833866736094482
78,-2.3530975256023448
79,33.54192531055098
80,34.042944781352716
81,-2.3327731720795075
2,2, 1, 2, 0,23, 0.00,60.00,Wednesday
7,0.825
8,10.0
9,10.0
49,0.0
76,-2.347596617881763
77,-3.8372125537095076
78,-2.3940626059136925
79,-30.406046248918685
80,-17.233155957454322
81,-2.4405285939456216
2,2, 1, 2, 0,24, 0.00,60.00,Wednesday
7,0.0
8,10.0
9,10.0
49,0.0
76,-2.4446084213728225
77,-3.9003756922480246