Program Version,EnergyPlus, Version 25.1.0-68a4a7c774, YMD=2025.08.28 15:55
1,5,Environment Title[],Latitude[deg],Longitude[deg],Time Zone[],Elevation[m]
2,8,Day of Simulation[],Month[],Day of Month[],DST Indicator[1=yes 0=no],Hour[],StartMinute[],EndMinute[],DayType
3,5,Cumulative Day of Simulation[],Month[],Day of Month[],DST Indicator[1=yes 0=no],DayType  ! When Daily Report Variables Requested
4,2,Cumulative Days of Simulation[],Month[]  ! When Monthly Report Variables Requested
5,1,Cumulative Days of Simulation[] ! When Run Period Report Variables Requested
6,1,Calendar Year of Simulation[] ! When Annual Report Variables Requested
7,1,Environment,Site Outdoor Air Drybulb Temperature [C] !Hourly
8,1,Environment,Site Total Sky Cover [] !Hourly
9,1,Environment,Site Opaque Sky Cover [] !Hourly
10,7,Environment,Site Daylight Saving Time Status [] !Daily [Value,Min,Hour,Minute,Max,Hour,Minute]
11,7,Environment,Site Day Type Index [] !Daily [Value,Min,Hour,Minute,Max,Hour,Minute]
49,1,ZONE ONE,Zone Total Internal Latent Gain Energy [J] !Hourly
50,9,TEST 352A,Other Equipment Total Heating Energy [J] !Monthly [Value,Min,Day,Hour,Minute,Max,Day,Hour,Minute]
51,9,TEST 352 MINUS,Other Equipment Total Heating Energy [J] !Monthly [Value,Min,Day,Hour,Minute,Max,Day,Hour,Minute]
52,9,ZONE ONE,Zone Other Equipment Total Heating Energy [J] !Monthly [Value,Min,Day,Hour,Minute,Max,Day,Hour,Minute]
53,7,ZN001:WALL001,Surface Inside Face Temperature [C] !Daily [Value,Min,Hour,Minute,Max,Hour,Minute]
54,7,ZN001:WALL001,Surface Outside Face Temperature [C] !Daily [Value,Min,Hour,Minute,Max,Hour,Minute]
55,7,ZN001:WALL001,Surface Inside Face Convection Heat Transfer Coefficient [W/m2-K] !Daily [Value,Min,Hour,Minute,Max,Hour,Minute]
56,7,ZN001:WALL001,Surface Outside Face Convection Heat Transfer Coefficient [W/m2-K] !Daily [Value,Min,Hour,Minute,Max,Hour,Minute]
57,7,ZN001:WALL002,Surface Inside Face Temperature [C] !Daily [Value,Min,Hour,Minute,Max,Hour,Minute]
58,7,ZN001:WALL002,Surface Outside Face Temperature [C] !Daily [Value,Min,Hour,Minute,Max,Hour,Minute]
59,7,ZN001:WALL002,Surface Inside Face Convection Heat Transfer Coefficient [W/m2-K] !Daily [Value,Min,Hour,Minute,Max,Hour,Minute]
60,7,ZN001:WALL002,Surface Outside Face Convection Heat Transfer Coefficient [W/m2-K] !Daily [Value,Min,Hour,Minute,Max,Hour,Minute]
61,7,ZN001:WALL003,Surface Inside Face Temperature [C] !Daily [Value,Min,Hour,Minute,Max,Hour,Minute]
62,7,ZN001:WALL003,Surface Outside Face Temperature [C] !Daily [Value,Min,Hour,Minute,Max,Hour,Minute]
63,7,ZN001:WALL003,Surface Inside Face Convection Heat Transfer Coefficient [W/m2-K] !Daily [Value,Min,Hour,Minute,Max,Hour,Minute]
64,7,ZN001:WALL003,Surface Outside Face Convection Heat Transfer Coefficient [W/m2-K] !Daily [Value,Min,Hour,Minute,Max,Hour,Minute]
65,7,ZN001:WALL004,Surface Inside Face Temperature [C] !Daily [Value,Min,Hour,Minute,Max,Hour,Minute]
66,7,ZN001:WALL004,Surface Outside Face Temperature [C] !Daily [Value,Min,Hour,Minute,Max,Hour,Minute]
67,7,ZN001:WALL004,Surface Inside Face Convection Heat Transfer Coefficient [W/m2-K] !Daily [Value,Min,Hour,Minute,Max,Hour,Minute]
68,7,ZN001:WALL004,Surface Outside Face Convection Heat Transfer Coefficient [W/m2-K] !Daily [Value,Min,Hour,Minute,Max,Hour,Minute]
69,7,ZN001:FLR001,Surface Inside Face Temperature [C] !Daily [Value,Min,Hour,Minute,Max,Hour,Minute]
70,7,ZN001:FLR001,Surface Outside Face Temperature [C] !Daily [Value,Min,Hour,Minute,Max,Hour,Minute]
71,7,ZN001:FLR001,Surface Inside Face Convection Heat Transfer Coefficient [W/m2-K] !Daily [Value,Min,Hour,Minute,Max,Hour,Minute]
72,7,ZN001:ROOF001,Surface Inside Face Temperature [C] !Daily [Value,Min,Hour,Minute,Max,Hour,Minute]
73,7,ZN001:ROOF001,Surface Outside Face Temperature [C] !Daily [Value,Min,Hour,Minute,Max,Hour,Minute]
74,7,ZN001:ROOF001,Surface Inside Face Convection Heat Transfer Coefficient [W/m2-K] !Daily [Value,Min,Hour,Minute,Max,Hour,Minute]
75,7,ZN001:ROOF001,Surface Outside Face Convection Heat Transfer Coefficient [W/m2-K] !Daily [Value,Min,Hour,Minute,Max,Hour,Minute]
76,1,ZONE ONE,Zone Mean Air Temperature [C] !Hourly
77,1,ZONE ONE,Zone Wetbulb Globe Temperature [C] !Hourly
78,1,ZONE ONE,Zone Operative Temperature [C] !Hourly
79,1,ZONE ONE,Zone Air Heat Balance Surface Convection Rate [W] !Hourly
80,1,ZONE ONE,Zone Air Heat Balance Air Energy Storage Rate [W] !Hourly
81,1,ZONE ONE,Zone Mean Radiant Temperature [C] !Hourly
17,11,Electricity:Facility [J] !Annual [Value,Min,Month,Day,Hour,Minute,Max,Month,Day,Hour,Minute]
End of Data Dictionary
1,DENVER CENTENNIAL  GOLDEN   N ANN HTG 99% CONDNS DB,  41.98, -87.92,  -6.00, 201.00
2,1,12,21, 0, 1, 0.00,60.00,WinterDesignDay
7,-15.5
8,6.75
9,6.75
49,0.0
76,-18.25637811484748
77,-18.25597697714733
78,-18.25505320896848
79,-0.035387018570264495
80,-0.03545361597964376
81,-18.253728303089485
2,1,12,21, 0, 2, 0.00,60.00,WinterDesignDay
7,-15.5
8,9.625
9,9.625
49,0.0
76,-18.256465719893644
77,-18.256065003106436
78,-18.2551417718195
79,-0.034858913085602516
80,-0.03492451799584635
81,-18.253817823745354
2,1,12,21, 0, 3, 0.00,60.00,WinterDesignDay
7,-15.5
8,10.0
9,10.0
49,0.0
76,-18.256552017504262
77,-18.256152437667204
78,-18.255229012340124
79,-0.034338677668579454
80,-0.0344033048151237
81,-18.253906007175985
2,1,12,21, 0, 4, 0.00,60.00,WinterDesignDay
7,-15.5
8,10.0
9,10.0
49,0.0
76,-18.2566370271647
77,-18.25623706299564
78,-18.25531495025711
79,-0.03382619542258958
80,-0.033889859338025255
81,-18.253992873349514
2,1,12,21, 0, 5, 0.00,60.00,WinterDesignDay
7,-15.5
8,10.0
9,10.0
49,0.0
76,-18.256720768070846
77,-18.25632113742091
78,-18.255399605003486
79,-0.03332135117375978
80,-0.03338406616389358
81,-18.254078441936123
2,1,12,21, 0, 6, 0.00,60.00,WinterDesignDay
7,-15.5
8,10.0
9,10.0
49,0.0
76,-18.256803259133388
77,-18.256402608967925
78,-18.255482995722936
79,-0.032824031445697344
80,-0.03288581161609744
81,-18.254162732312487
2,1,12,21, 0, 7, 0.00,60.00,WinterDesignDay
7,-15.5
8,10.0
9,10.0
49,0.0
76,-18.25688451898202
77,-18.256485707248807
78,-18.255565141274083
79,-0.032334124437914724
80,-0.03239498367410948
81,-18.254245763566146
2,1,12,21, 0, 8, 0.00,60.00,WinterDesignDay
7,-15.5
8,8.75
9,8.75
49,0.0
76,-18.25696456596961
77,-18.256565853042126
78,-18.25564606023471
79,-0.031851519987635246
80,-0.031911471986197266
81,-18.254327554499802
2,1,12,21, 0, 9, 0.00,60.00,WinterDesignDay
7,-15.5
8,3.0
9,3.0
49,0.0
76,-18.257043418176238
77,-18.256643412661013
78,-18.25572577090592
79,-0.03137610957351811
80,-0.031435167811170964
81,-18.254408123635606
2,1,12,21, 0,10, 0.00,60.00,WinterDesignDay
7,-15.5
8,1.25
9,0.0
49,0.0
76,-18.257121093413225
77,-18.256723257390824
78,-18.25580429131623
79,-0.030907786261726855
80,-0.030965964029270737
81,-18.254487489219247
2,1,12,21, 0,11, 0.00,60.00,WinterDesignDay
7,-15.5
8,0.75
9,0.0
49,0.0
76,-18.25719760922715
77,-18.25679994228838
78,-18.255881639225652
79,-0.03044644469648361
80,-0.030503755084446586
81,-18.254565669224156
2,1,12,21, 0,12, 0.00,60.00,WinterDesignDay
7,-15.5
8,3.75
9,1.25
49,0.0
76,-18.2572729829037
77,-18.25687550156799
78,-18.255957832129624
79,-0.02999198109211454
80,-0.030048436997302808
81,-18.25464268135555
2,1,12,21, 0,13, 0.00,60.00,WinterDesignDay
7,-15.5
8,8.5
9,5.75
49,0.0
76,-18.257347231471563
77,-18.256949274997222
78,-18.256032887262975
79,-0.029544293172498293
80,-0.02959990730686754
81,-18.254718543054388
2,1,12,21, 0,14, 0.00,60.00,WinterDesignDay
7,-15.5
8,10.0
9,8.625
49,0.0
76,-18.257420371706203
77,-18.257022127861358
78,-18.256106821603773
79,-0.029103280194981984
80,-0.029158065076535636
81,-18.25479327150134
2,1,12,21, 0,15, 0.00,60.00,WinterDesignDay
7,-15.5
8,9.375
9,9.0
49,0.0
76,-18.257492420133588
77,-18.257094678325306
78,-18.256179651877126
79,-0.028668842899294944
80,-0.028722810851755987
81,-18.25486688362066
2,1,12,21, 0,16, 0.00,60.00,WinterDesignDay
7,-15.5
8,9.625
9,9.625
49,0.0
76,-18.257563393033927
77,-18.257166873820744
78,-18.25625139455896
79,-0.028240883475829204
80,-0.028294046658759522
81,-18.25493939608399
2,1,12,21, 0,17, 0.00,60.00,WinterDesignDay
7,-15.5
8,10.0
9,10.0
49,0.0
76,-18.257633306445243
77,-18.25723393955578
78,-18.256322065879708
79,-0.027819305582872822
80,-0.027871675966471807
81,-18.25501082531417
2,1,12,21, 0,18, 0.00,60.00,WinterDesignDay
7,-15.5
8,10.0
9,10.0
49,0.0
76,-18.257702176167005
77,-18.257307526143467
78,-18.256391681827953
79,-0.02740401429294259
80,-0.02745560366895608
81,-18.255081187488898
2,1,12,21, 0,19, 0.00,60.00,WinterDesignDay
7,-15.5
8,10.0
9,10.0
49,0.0
76,-18.25777001776363
77,-18.257371350104506
78,-18.256460258154014
79,-0.026994916075462783
80,-0.02704573607319171
81,-18.2551504985444
2,1,12,21, 0,20, 0.00,60.00,WinterDesignDay
7,-15.5
8,10.0
9,10.0
49,0.0
76,-18.257836846567944
77,-18.25744195661909
78,-18.256527810373488
79,-0.026591918794207636
80,-0.026641980852475187
81,-18.255218774179035
2,1,12,21, 0,21, 0.00,60.00,WinterDesignDay
7,-15.5
8,10.0
9,10.0
49,0.0
76,-18.25790267768464
77,-18.25750719979972
78,-18.25659435377074
79,-0.026194931677713917
80,-0.026244247079137778
81,-18.255286029856844
2,1,12,21, 0,22, 0.00,60.00,WinterDesignDay
7,-15.5
8,10.0
9,10.0
49,0.0
76,-18.257967525993653
77,-18.25757031070052
78,-18.256659903402348
79,-0.025803865290527916
80,-0.025852445143982564
81,-18.255352280811042
2,1,12,21, 0,23, 0.00,60.00,WinterDesignDay
7,-15.5
8,7.5
9,7.5
49,0.0
76,-18.258031406153457
77,-18.257632601082822
78,-18.25672447410045
79,-0.025418631522104995
80,-0.02546648677909866
81,-18.255417542047443
2,1,12,21, 0,24, 0.00,60.00,WinterDesignDay
7,-15.5
8,4.125
9,4.125
49,0.0
76,-18.2580943326044
77,-18.25769676850811
78,-18.256788080476145
79,-0.025039143567152866
80,-0.025086285012189194
81,-18.255481828347886
3,1,12,21, 0,WinterDesignDay
10,0.0,0.0, 1,15,0.0, 1,15
11,10.000000,10.0, 1,15,10.0, 1,15
53,-18.187501000500564,-18.18828987530706,24,60,-18.186613526641228, 1,15
54,-17.41662602520112,-17.416653742679543,24,60,-17.41659484348132, 1,15
55,0.539200746459905,0.5390688705847317, 1,15,0.539318098414973,24,60
56,7.416453075558696,7.416451994909973,24,60,7.416454291293667, 1,15
57,-18.191417250530154,-18.192206068968677,24,60,-18.190529839930296, 1,15
58,-17.462967698323876,-17.462996058186594,24,60,-17.462935793933145, 1,15
59,0.5289189826856516,0.52878175844724, 1,15,0.5290410918686843,24,60
60,7.15146378298974,7.15146286126558,24,60,7.151464819936417, 1,15
61,-18.191417250530154,-18.192206068968677,24,60,-18.190529839930296, 1,15
62,-17.462967698323876,-17.462996058186594,24,60,-17.462935793933145, 1,15
63,0.5289189826856516,0.52878175844724, 1,15,0.5290410918686843,24,60
64,7.15146378298974,7.15146286126558,24,60,7.151464819936417, 1,15
65,-18.187501000500564,-18.18828987530706,24,60,-18.186613526641228, 1,15
66,-17.41662602520112,-17.416653742679543,24,60,-17.41659484348132, 1,15
67,0.539200746459905,0.5390688705847317, 1,15,0.539318098414973,24,60
68,7.416453075558696,7.416451994909973,24,60,7.416454291293667, 1,15
69,-18.26109083197362,-18.262038502923474,24,60,-18.26002467453454, 1,15
70,-18.261069591463833,-18.262020835715692,24,60,-18.259999413984076, 1,15
71,0.11862211149970399,0.11727941919864368, 1,15,0.11979801032913946,24,60
72,-18.326448953935895,-18.327282249363517,24,60,-18.325511504845696, 1,15
73,-20.306449111173553,-20.306461565605858,24,60,-20.30643510004436, 1,15
74,0.6239519406951878,0.6239489944027277,24,60,0.6239550328161991, 1,15
75,8.618863629571687,8.618863302752745,24,60,8.618863997240846, 1,15
4,1,12
50,30412800.0,9999.0, 0, 0, 0,316800.0,21, 1,15
51,-30412800.0,-316800.0,21, 1,15,-9999.0, 0, 0, 0
52,0.0,0.0,21, 1,15,0.0,21, 1,15
1,DENVER CENTENNIAL  GOLDEN   N ANN CLG 1% CONDNS DB=>MWB,  41.98, -87.92,  -6.00, 201.00
2,1, 7,21, 0, 1, 0.00,60.00,SummerDesignDay
7,18.966
8,6.75
9,6.75
49,0.0
76,29.18969812997109
77,18.900303442813424
78,29.114267647998005
79,-93.41150031815899
80,-93.32314557298415
81,29.03883716602492
2,1, 7,21, 0, 2, 0.00,60.00,SummerDesignDay
7,18.244
8,9.625
9,9.625
49,0.0
76,28.915764237024774
77,18.746400240809667
78,28.84048340904238
79,-91.36041586537907
80,-91.82881571711317
81,28.765202581059988
2,1, 7,21, 0, 3, 0.00,60.00,SummerDesignDay
7,17.731
8,10.0
9,10.0
49,0.0
76,28.649047327726706
77,18.596330744555857
78,28.57402384941978
79,-89.44181166681199
80,-89.67440787556988
81,28.499000371112853
2,1, 7,21, 0, 4, 0.00,60.00,SummerDesignDay
7,17.275000000000002
8,10.0
9,10.0
49,0.0
76,28.385122160619282
77,18.44732100438202
78,28.309482578063257
79,-89.82381064173522
80,-89.71406544751115
81,28.23384299550723
2,1, 7,21, 0, 5, 0.00,60.00,SummerDesignDay
7,16.913999999999998
8,10.0
9,10.0
49,0.0
76,28.125209032860823
77,18.302093946469583
78,28.05482859535986
79,-80.2250318409905
80,-84.25014377388008
81,27.984448157858893
2,1, 7,21, 0, 6, 0.00,60.00,SummerDesignDay
7,16.990000000000002
8,10.0
9,10.0
49,0.0
76,28.11707688071075
77,18.328246029561342
78,28.149202701222023
79,86.12992571000183
80,63.54105158633294
81,28.1813285217333
2,1, 7,21, 0, 7, 0.00,60.00,SummerDesignDay
7,17.769
8,10.0
9,10.0
49,0.0
76,28.428018683201337
77,18.51011326588648
78,28.48101297063417
79,104.6193848977292
80,107.84926205766814
81,28.534007258067007
2,1, 7,21, 0, 8, 0.00,60.00,SummerDesignDay
7,19.783
8,8.75
9,8.75
49,0.0
76,28.746043061184324
77,18.6922771813486
78,28.80875950075727
79,123.1682059796025
80,116.51581295884826
81,28.87147594033021
2,1, 7,21, 0, 9, 0.00,60.00,SummerDesignDay
7,22.557
8,3.0
9,3.0
49,0.0
76,29.175367806119098
77,18.93876650946097
78,29.255044127539286
79,160.04192806118584
80,158.20629090979472
81,29.334720448959473
2,1, 7,21, 0,10, 0.00,60.00,SummerDesignDay
7,25.255000000000003
8,1.25
9,0.0
49,0.0
76,29.63859289736832
77,19.19779400643094
78,29.715845967620425
79,148.99621820027247
80,151.47119459227844
81,29.79309903787253
2,1, 7,21, 0,11, 0.00,60.00,SummerDesignDay
7,27.649
8,0.75
9,0.0
49,0.0
76,30.04998476077564
77,19.42519792173269
78,30.11837137118314
79,127.29433425101931
80,130.39269181530705
81,30.18675798159064
2,1, 7,21, 0,12, 0.00,60.00,SummerDesignDay
7,29.454
8,3.75
9,1.25
49,0.0
76,30.37978403563012
77,19.604430507955872
78,30.432230854296883
79,94.26955125443662
80,98.48753429386257
81,30.48467767296364
2,1, 7,21, 0,13, 0.00,60.00,SummerDesignDay
7,30.784
8,8.5
9,5.75
49,0.0
76,30.690060252712982
77,19.783236269532676
78,30.76265247119846
79,126.8501063886803
80,119.27800952700505
81,30.835244689683936
2,1, 7,21, 0,14, 0.00,60.00,SummerDesignDay
7,31.715
8,10.0
9,8.625
49,0.0
76,31.085534150654258
77,19.99952059051688
78,31.14661881110412
79,129.15657611229648
80,131.94813854157164
81,31.207703471553977
2,1, 7,21, 0,15, 0.00,60.00,SummerDesignDay
7,32.0
8,9.375
9,9.0
49,0.0
76,31.42040673822915
77,20.17540540390323
78,31.448905755151337
79,92.17744586987004
80,97.7738194939813
81,31.47740477207353
2,1, 7,21, 0,16, 0.00,60.00,SummerDesignDay
7,31.43
8,9.625
9,9.625
49,0.0
76,31.618260498117294
77,20.27123083062994
78,31.601114048270865
79,38.206951799295645
80,45.70972696705901
81,31.58396759842443
2,1, 7,21, 0,17, 0.00,60.00,SummerDesignDay
7,30.328
8,10.0
9,10.0
49,0.0
76,31.664800347370004
77,20.283585683471635
78,31.603026520083503
79,-1.2560000793159911
80,1.9538176057591201
81,31.54125269279701
2,1, 7,21, 0,18, 0.00,60.00,SummerDesignDay
7,28.922
8,10.0
9,10.0
49,0.0
76,31.589506332723957
77,20.230925348201062
78,31.491038811937443
79,-62.12155991099016
80,-50.260409878803586
81,31.392571291150926
2,1, 7,21, 0,19, 0.00,60.00,SummerDesignDay
7,26.927
8,10.0
9,10.0
49,0.0
76,31.207235967335905
77,20.00207045498008
78,31.051869891216207
79,-206.66013311632307
80,-185.33074622225013
81,30.89650381509651
2,1, 7,21, 0,20, 0.00,60.00,SummerDesignDay
7,25.027
8,10.0
9,10.0
49,0.0
76,30.581842792943547
77,19.67336504125275
78,30.488968666503
79,-157.8784569689554
80,-180.9216775480492
81,30.39609454006245
2,1, 7,21, 0,21, 0.00,60.00,SummerDesignDay
7,23.544999999999998
8,10.0
9,10.0
49,0.0
76,30.250648811731203
77,19.49632409963455
78,30.182749923000163
79,-89.79169986685854
80,-90.87044637305694
81,30.11485103426912
2,1, 7,21, 0,22, 0.00,60.00,SummerDesignDay
7,22.177
8,10.0
9,10.0
49,0.0
76,29.992390899465548
77,19.351764999793485
78,29.923204256785638
79,-87.87900536166104
80,-87.37691556998689
81,29.85401761410572
2,1, 7,21, 0,23, 0.00,60.00,SummerDesignDay
7,20.999000000000002
8,7.5
9,7.5
49,0.0
76,29.730607544924833
77,19.20493921517287
78,29.659927136383892
79,-88.28610913610866
80,-88.44028056218932
81,29.58924672784295
2,1, 7,21, 0,24, 0.00,60.00,SummerDesignDay
7,19.935000000000002
8,4.125
9,4.125
49,0.0
76,29.465408084404842
77,19.05555633726642
78,29.391892170041977
79,-91.47474884395095
80,-90.93133358706848
81,29.318376255679112
3,1, 7,21, 0,SummerDesignDay
10,0.0,0.0, 1,15,0.0, 1,15
11,9.000000,9.0, 1,15,9.0, 1,15
53,29.749294821623206,27.3498693240057, 5,60,32.039125557421265,15,30
54,28.064937343621892,15.573224205707444, 5,45,48.34877370700692,13,30
55,1.051187633335353,0.3829393327234668,17,30,1.2961810871290882,13,45
56,11.65737180439668,11.426183513095198,14,45,12.328259421795455,19,45
57,29.902899436247058,27.36232131445179, 5,45,31.713538308649213,16,15
58,31.039852941307675,15.40914665210799, 5,45,55.660519324888305, 9,15
59,1.0701028452177344,0.37847540289416204,17,15,1.4738536097764423, 9,30
60,9.796288769316181,9.64876857707333,12,45,10.203250817086417,19,45
61,29.640090636170797,27.362304968377323, 5,45,31.713538308649223,16,15
62,25.845498343941912,15.408839868501719, 5,45,36.11965374315753,18,30
63,0.8646279209131973,0.22003731439202256,19,15,1.1779435004122485, 5,60
64,9.759590882084108,9.651425884184977, 7,30,10.090568516762628, 6,15
65,29.855424937035906,27.3498693240057, 5,60,33.0370163167027,16,60
66,30.231096286515328,15.573224205707444, 5,45,61.556998993010865,16,60
67,1.0614086274426973,0.3315141281036818,10,15,1.462076118177539,16,60
68,11.65029550974622,11.42618360649975,14,30,12.09930889247473, 6,45
69,29.83308401281485,28.64478921325803, 7,30,31.02844158208702,19,15
70,29.833065601262774,28.64478921325803, 7,45,31.02844158208702,19,30
71,0.9434474927646352,0.1619230764535168,20,15,1.3798492169074137, 5,60
72,29.904554055971456,27.709195766036512, 5,60,31.93767457886559,15,60
73,32.31520581271521,12.971773465112886, 5,45,60.63641963012151,13,30
74,0.8016806431914726,0.22513565950259098, 7,45,1.1477167623933529,20,15
75,13.38016604468013,13.087110646948043,17,30,13.868375919203572, 6,45
4,1, 7
50,30412800.0,316800.0,21, 1,15,316800.0,21, 1,15
51,-30412800.0,-316800.0,21, 1,15,-316800.0,21, 1,15
52,0.0,0.0,21, 1,15,0.0,21, 1,15
1,RUN PERIOD 1,  41.98, -87.92,  -6.00, 201.00
2,1, 1, 1, 0, 1, 0.00,60.00,Tuesday
7,-8.2625
8,6.75
9,6.75
49,0.0
76,-4.012156258397685
77,-5.041062138477917
78,-4.158316473981497
79,-220.11703486290952
80,-181.00047109078054
81,-4.304476689565309
2,1, 1, 1, 0, 2, 0.00,60.00,Tuesday
7,-11.8875
8,9.625
9,9.625
49,0.0
76,-4.571067545459206
77,-5.429337434101685
78,-4.652358406190199
79,-127.67720500144735
80,-162.70808834699636
81,-4.7336492669211925
2,1, 1, 1, 0, 3, 0.00,60.00,Tuesday
7,-11.325
8,10.0
9,10.0
49,0.0
76,-4.770800443316709
77,-5.570904280070929
78,-4.824721390753636
79,-51.592461788870125
80,-52.73467649858142
81,-4.878642338190563
2,1, 1, 1, 0, 4, 0.00,60.00,Tuesday
7,-11.1
8,10.0
9,10.0
49,0.0
76,-4.893196238649551
77,-5.662661681841014
78,-4.944264287498939
79,-46.19824849782461
80,-45.99165725214117
81,-4.9953323363483255
2,1, 1, 1, 0, 5, 0.00,60.00,Tuesday
7,-10.7875
8,10.0
9,10.0
49,0.0
76,-5.00596295411132
77,-5.745547211586293
78,-5.051937985666999
79,-38.60834798029179
80,-40.07272192099024
81,-5.0979130172226785
2,1, 1, 1, 0, 6, 0.00,60.00,Tuesday
7,-10.6
8,10.0
9,10.0
49,0.0
76,-5.108262222719131
77,-5.822702714209615
78,-5.155855487569652
79,-42.643975180507184
80,-41.3010677065214
81,-5.203448752420173
2,1, 1, 1, 0, 7, 0.00,60.00,Tuesday
7,-10.6
8,10.0
9,10.0
49,0.0
76,-5.221350785038867
77,-5.907220202719548
78,-5.26781971957299
79,-42.391881981818756
80,-42.960574970154056
81,-5.314288654107112
2,1, 1, 1, 0, 8, 0.00,60.00,Tuesday
7,-10.225
8,8.75
9,8.75
49,0.0
76,-5.256327831074102
77,-5.9096756344868675
78,-5.223403249219991
79,66.62371586276987
80,35.8938661340498
81,-5.190478667365879
2,1, 1, 1, 0, 9, 0.00,60.00,Tuesday
7,-9.3125
8,3.0
9,3.0
49,0.0
76,-4.755276241680428
77,-5.501478370999084
78,-4.612189206491754
79,275.7168883579382
80,264.7305852868568
81,-4.46910217130308
2,1, 1, 1, 0,10, 0.00,60.00,Tuesday
7,-7.525
8,1.25
9,0.0
49,0.0
76,-4.0869544619493565
77,-5.0313166108093235
78,-4.0349825840807005
79,203.03124654684245
80,221.52879793951848
81,-3.9830107062120437
2,1, 1, 1, 0,11, 0.00,60.00,Tuesday
7,-5.6375
8,0.75
9,0.0
49,0.0
76,-3.6596359956189604
77,-4.726913745345675
78,-3.6405564602136034
79,136.9391719094528
80,140.76491356818204
81,-3.6214769248082463
2,1, 1, 1, 0,12, 0.00,60.00,Tuesday
7,-3.9375
8,3.75
9,1.25
49,0.0
76,-3.4008805177768036
77,-4.551264444179998
78,-3.421741958315922
79,48.9926075466348
80,63.96101836673881
81,-3.4426033988550406
2,1, 1, 1, 0,13, 0.00,60.00,Tuesday
7,-2.6125
8,8.5
9,5.75
49,0.0
76,-3.3839193346084087
77,-4.54540727334627
78,-3.416498569548316
79,-9.393014803582908
80,-12.371248523804843
81,-3.4490778044882227
2,1, 1, 1, 0,14, 0.00,60.00,Tuesday
7,-1.5125000000000002
8,10.0
9,8.625
49,0.0
76,-3.354822502017171
77,-4.5149331369744266
78,-3.353248296268317
79,31.912798366001816
80,27.928180295835975
81,-3.3516740905194635
2,1, 1, 1, 0,15, 0.00,60.00,Tuesday
7,-1.1
8,9.375
9,9.0
49,0.0
76,-3.261291498024042
77,-4.451071630853801
78,-3.2759859333188377
79,20.9980525301073
80,28.19087982765736
81,-3.2906803686136326
2,1, 1, 1, 0,16, 0.00,60.00,Tuesday
7,-1.1
8,9.625
9,9.625
49,0.0
76,-3.30137679079205
77,-4.49509439230732
78,-3.3646260124746443
79,-47.339828022947074
80,-41.09426129961121
81,-3.4278752341572387
2,1, 1, 1, 0,17, 0.00,60.00,Tuesday
7,-1.1
8,10.0
9,10.0
49,0.0
76,-3.497159676525277
77,-4.648945857358019
78,-3.5930750277379637
79,-95.10040135139073
80,-91.73348706484077
81,-3.6889903789506495
2,1, 1, 1, 0,18, 0.00,60.00,Tuesday
7,-1.4749999999999999
8,10.0
9,10.0
49,0.0
76,-3.705412826293977
77,-4.790212754253778
78,-3.760440239566392
79,-56.388226686786666
80,-62.01339619515114
81,-3.8154676528388074
2,1, 1, 1, 0,19, 0.00,60.00,Tuesday
7,-2.0125
8,10.0
9,10.0
49,0.0
76,-3.79902249693077
77,-4.84586784412683
78,-3.809143267352165
79,-13.32976435053458
80,-19.146359124249447
81,-3.81926403777356
2,1, 1, 1, 0,20, 0.00,60.00,Tuesday
7,-1.5125000000000002
8,10.0
9,10.0
49,0.0
76,-3.786471402364114
77,-4.825593904793274
78,-3.759921395372241
79,21.71562134723211
80,17.561918649286262
81,-3.7333713883803683
2,1, 1, 1, 0,21, 0.00,60.00,Tuesday
7,-1.4749999999999999
8,10.0
9,10.0
49,0.0
76,-3.7447536294037356
77,-4.809303502223592
78,-3.7602015081341094
79,-7.527640144496278
80,1.75947167569786
81,-3.7756493868644827
2,1, 1, 1, 0,22, 0.00,60.00,Tuesday
7,-1.3249999999999997
8,10.0
9,10.0
49,0.0
76,-3.766158965513714
77,-4.81657923218451
78,-3.749316632553836
79,12.935908175507759
80,3.407717212396786
81,-3.7324742995939584
2,1, 1, 1, 0,23, 0.00,60.00,Tuesday
7,-1.4749999999999999
8,7.5
9,7.5
49,0.0
76,-3.7265317280761083
77,-4.796565680766842
78,-3.734080351852691
79,-0.8976757551811678
80,6.652482753677704
81,-3.741628975629274
2,1, 1, 1, 0,24, 0.00,60.00,Tuesday
7,-1.7
8,4.125
9,4.125
49,0.0
76,-3.7640912163586773
77,-4.829376874539276
78,-3.7847182194781452
79,-19.036022011741633
80,-19.705492498791457
81,-3.805345222597614
3,1, 1, 1, 0,Tuesday
10,0.0,0.0, 1,15,0.0, 1,15
11,3.000000,3.0, 1,15,3.0, 1,15
53,-3.8821525487507316,-5.754751287894203, 8,15,-1.7979214019494194,12,30
54,-0.43722281899469745,-13.31707031545754, 1,60,23.90481214791299,11,30
55,0.940517148902917,0.12900748597218317,21,60,1.5732794274728352,11,45
56,7.059179171703877,1.4707515304907481,21,60,13.07895206919633,11,45
57,-4.038357230459126,-5.754757631944124, 8,15,-2.8273729262612566,11,30
58,-2.9023345499056172,-13.314323022534683, 1,60,15.59147468530677, 9,60
59,0.8426308112735491,0.14987884469156731,19,45,1.4708907535891278, 9,45
60,6.6093707004911835,1.525260389184337,21,60,10.66730326450799,12,60
61,-4.211560675724794,-5.7561487976867936, 8,15,-3.0009641911712603,15,15
62,-5.518231529934013,-13.317130427475748, 1,60,1.538022745067975,14,30
63,0.7290388522328515,0.14987871486655827,19,45,1.2166865404635294, 2,15
64,6.6256702227182585,1.5252042893747313,21,60,10.845220163494464,10,60
65,-4.182145716899794,-5.754751287894203, 8,15,-2.7082548400232,15,30
66,-5.088169068509074,-13.317070315457487, 1,60,5.482774172519746,15,30
67,0.7637110964887043,0.12929564796668072,21,60,1.2166744534533152, 2,15
68,7.123915524492308,1.470721154729349,21,60,13.543277982858928,10,60
69,-4.130917742408433,-4.809925125607504, 8,45,-3.771443516256192,23,30
70,-4.13090014253532,-4.809925125607504, 8,60,-3.771443516256192,23,45
71,0.7089400843592809,0.13611731978129804,20,60,1.3027519896612851, 3,30
72,-4.156940307871488,-5.540943372254383, 8,15,-3.1394730641307844,15,15
73,-5.829735815906691,-15.662230914372119, 1,60,6.993442582197262,12,30
74,0.6709841722057085,0.10252698549784023,16,15,1.2054098959756447, 2,15
75,8.029458931911185,1.2600452965793678,21,60,15.09189604026026,10,60
2,2, 1, 2, 0, 1, 0.00,60.00,Wednesday
7,-3.0749999999999997
8,2.375
9,2.375
49,0.0
76,-3.854887180142395
77,-4.906110069751984
78,-3.9076752378905395
79,-60.495273723650115
80,-52.01809595232537
81,-3.960463295638684
2,2, 1, 2, 0, 2, 0.00,60.00,Wednesday
7,-3.2124999999999995
8,3.25
9,2.625
49,0.0
76,-3.9822802090383087
77,-4.987800389711474
78,-3.993304447772719
79,-12.972917933404995
80,-26.003971675291776
81,-4.004328686507129
2,2, 1, 2, 0, 3, 0.00,60.00,Wednesday
7,-3.1125
8,2.75
9,2.375
49,0.0
76,-3.9906907178243305
77,-4.997670155987212
78,-4.007483738874031
79,-12.074969357323663
80,-6.362582189169993
81,-4.024276759923732
2,2, 1, 2, 0, 4, 0.00,60.00,Wednesday
7,-2.9875
8,5.75
9,4.5
49,0.0
76,-4.030396596554333
77,-5.026395403300802
78,-4.04113320185532
79,-8.69606960977039
80,-12.180575470704483
81,-4.051869807156308
2,2, 1, 2, 0, 5, 0.00,60.00,Wednesday
7,-1.7374999999999998
8,9.25
9,7.25
49,0.0
76,-3.9978302736719398
77,-4.986073871193519
78,-3.954516307628312
79,37.90639773783616
80,30.66811761475461
81,-3.9112023415846853
2,2, 1, 2, 0, 6, 0.00,60.00,Wednesday
7,-1.1
8,10.0
9,8.0
49,0.0
76,-3.887945214522433
77,-4.908080151102231
78,-3.855608730745506
79,32.91309621687374
80,37.57468471669776
81,-3.8232722469685787
2,2, 1, 2, 0, 7, 0.00,60.00,Wednesday
7,-0.7875000000000001
8,10.0
9,9.25
49,0.0
76,-3.813756549991185
77,-4.852863317839412
78,-3.786540973415577
79,30.021241249399896
80,28.19089639871989
81,-3.759325396839969
2,2, 1, 2, 0, 8, 0.00,60.00,Wednesday
7,-0.6
8,10.0
9,10.0
49,0.0
76,-3.722239015601156
77,-4.783564920040085
78,-3.6866942821141366
79,43.40086915456661
80,40.431042124881635
81,-3.6511495486271177
2,2, 1, 2, 0, 9, 0.00,60.00,Wednesday
7,-0.225
8,10.0
9,10.0
49,0.0
76,-3.546526497293299
77,-4.643196975538907
78,-3.477478760009822
79,95.59286394045466
80,87.19099848996598
81,-3.4084310227263446
2,2, 1, 2, 0,10, 0.00,60.00,Wednesday
7,0.375
8,10.0
9,10.0
49,0.0
76,-3.2214271118853186
77,-4.400493472087657
78,-3.144046477685672
79,133.77065572595373
80,135.32780797353016
81,-3.0666658434860254
2,2, 1, 2, 0,11, 0.00,60.00,Wednesday
7,1.2874999999999999
8,10.0
9,10.0
49,0.0
76,-2.9079550655838466
77,-4.178671957711653
78,-2.850272572948003
79,113.28622932020924
80,111.55847140692816
81,-2.79259008031216
2,2, 1, 2, 0,12, 0.00,60.00,Wednesday
7,1.7
8,10.0
9,10.0
49,0.0
76,-2.5643087708761323
77,-3.927766615708923
78,-2.49577741921391
79,143.87127859585195
80,141.48017959147822
81,-2.427246067551687
2,2, 1, 2, 0,13, 0.00,60.00,Wednesday
7,1.7
8,10.0
9,10.0
49,0.0
76,-2.1500437271650936
77,-3.6308339493010404
78,-2.0777889569399877
79,165.97483697687915
80,164.26795548651853
81,-2.005534186714881
2,2, 1, 2, 0,14, 0.00,60.00,Wednesday
7,0.6375
8,10.0
9,10.0
49,0.0
76,-1.9001516916941166
77,-3.4881865023039236
78,-1.940677058123982
79,-10.064908688965055
80,20.813056303683815
81,-1.9812024245538475
2,2, 1, 2, 0,15, 0.00,60.00,Wednesday
7,-0.375
8,10.0
9,10.0
49,0.0
76,-2.030310885516249
77,-3.5917567857242294
78,-2.0911485597369337
79,-55.19301424300032
80,-59.171509702691836
81,-2.1519862339576186
2,2, 1, 2, 0,16, 0.00,60.00,Wednesday
7,0.15
8,10.0
9,10.0
49,0.0
76,-2.1820061076942747
77,-3.704549669261766
78,-2.2415037915849814
79,-51.35357071737487
80,-54.59827440970519
81,-2.301001475475689
2,2, 1, 2, 0,17, 0.00,60.00,Wednesday
7,0.6
8,10.0
9,10.0
49,0.0
76,-2.2899745624592054
77,-3.7789639972966125
78,-2.3323448022445596
79,-32.647029691087496
80,-34.21780116711916
81,-2.3747150420299135
2,2, 1, 2, 0,18, 0.00,60.00,Wednesday
7,-0.15
8,10.0
9,10.0
49,0.0
76,-2.362082124439679
77,-3.8307430538851843
78,-2.4025205677684838
79,-28.75082870553264
80,-26.23810658672386
81,-2.442959011097289
2,2, 1, 2, 0,19, 0.00,60.00,Wednesday
7,0.15
8,10.0
9,10.0
49,0.0
76,-2.416891627757941
77,-3.8636672814434534
78,-2.4207131072878605
79,0.6722751422154607
80,-7.22968987313744
81,-2.4245345868177797
2,2, 1, 2, 0,20, 0.00,60.00,Wednesday
7,0.9125000000000001
8,10.0
9,10.0
49,0.0
76,-2.369668982306213
77,-3.8253154415270973
78,-2.351815513518529
79,26.74895907772507
80,26.080721595714053
81,-2.3339620447308445
2,2, 1, 2, 0,21, 0.00,60.00,Wednesday
7,1.4749999999999999
8,10.0
9,10.0
49,0.0
76,-2.287411678191432
77,-3.7681592591245554
78,-2.264357386444823
79,35.04782494038683
80,33.82598081494115
81,-2.241303094698214
2,2, 1, 2, 0,22, 0.00,60.00,Wednesday
7,2.0125
8,10.0
9,10.0
49,0.0
76,-2.1897820695342554
77,-3.7006983217485643
78,-2.1695618732194135
79,35.80133643399663
80,36.35387606656673
81,-2.1493416769045712
2,2, 1, 2, 0,23, 0.00,60.00,Wednesday
7,0.825
8,10.0
9,10.0
49,0.0
76,-2.163965203511892
77,-3.705446473386361
78,-2.215021765204188
79,-34.42815000799821
80,-19.902447361108965
81,-2.266078326896484
2,2, 1, 2, 0,24, 0.00,60.00,Wednesday
7,0.0
8,10.0
9,10.0
49,0.0
76,-2.2725188389202016